[Molden Format]
made by pyscf v[2.1.1]
[Atoms] (AU)
C   1   6    -7.94938881190020     0.71477643442431    -0.35400806409315
H   2   1    -8.73445852281563    -0.47027516466052     1.14602346337942
H   3   1    -8.56431759810825    -0.07613876631224    -2.16129847695369
H   4   1    -8.78695001229551     2.59296559202629    -0.17246585475843
C   5   6    -5.07120024185187     0.83234517834629    -0.18986569702298
C   6   6    -3.82427787561309    -1.76399905501811    -0.43179467158601
H   7   1    -4.53632724626705     1.71196903665785     1.60204933717027
H   8   1    -4.35037120362318     2.07434764261976    -1.68183168442329
H   9   1    -4.48067745751518    -2.98267058261247     1.11013586352042
C   10   6    -0.93052665503852    -1.73960325766781    -0.46299782935482
H   11   1    -4.48763920855808    -2.65145752886950    -2.18001659216274
C   12   6     0.31639835681683    -0.87865499572749     1.99836251104145
H   13   1    -0.27412707313643    -0.53709436864425    -2.01756609689189
H   14   1    -0.26716740079227    -3.65025167399361    -0.90264185634444
H   15   1    -0.21847274904187     1.07250744795546     2.41986592312568
C   16   6     3.19458654891994    -1.06630895729428     1.92384815330588
H   17   1    -0.40443068141185    -2.02704723080406     3.56352307145192
H   18   1     3.97965625983537     0.10364524183618     0.41201207365100
H   19   1     3.80951344540187    -3.01099927797322     1.59214358179792
H   20   1     4.03214963904138    -0.43716224967022     3.70281516203884
[GTO]
1 0
 s    8 1.00
                  6665  0.00069158396281299
                  1000  0.0053257961529341
                   228   0.027060721042034
                 64.71    0.10165684614077
                 21.06     0.2745748236174
                 7.495    0.44829431892377
                 2.797    0.28490261071525
                0.5215   0.015194859206082
 s    8 1.00
                  6665  -0.00029326965268655
                  1000  -0.0023180354739745
                   228  -0.011499786038565
                 64.71  -0.046826727009787
                 21.06   -0.12846616875047
                 7.495   -0.30126627246289
                 2.797   -0.25563070233011
                0.5215      1.093793361012
 s    1 1.00
                0.1596                   1
 s    1 1.00
                0.0469                   1
 p    3 1.00
                 9.439   0.056979251590039
                 2.002    0.31320721150073
                0.5456    0.76037674173753
 p    1 1.00
                0.1517                   1
 p    1 1.00
               0.04041                   1
 d    1 1.00
                  0.55                   1
 d    1 1.00
                 0.151                   1

2 0
 s    3 1.00
                 13.01   0.033498726389998
                 1.962    0.23480080117413
                0.4446     0.8136829578829
 s    1 1.00
                 0.122                   1
 s    1 1.00
               0.02974                   1
 p    1 1.00
                 0.727                   1
 p    1 1.00
                 0.141                   1

3 0
 s    3 1.00
                 13.01   0.033498726389998
                 1.962    0.23480080117413
                0.4446     0.8136829578829
 s    1 1.00
                 0.122                   1
 s    1 1.00
               0.02974                   1
 p    1 1.00
                 0.727                   1
 p    1 1.00
                 0.141                   1

4 0
 s    3 1.00
                 13.01   0.033498726389998
                 1.962    0.23480080117413
                0.4446     0.8136829578829
 s    1 1.00
                 0.122                   1
 s    1 1.00
               0.02974                   1
 p    1 1.00
                 0.727                   1
 p    1 1.00
                 0.141                   1

5 0
 s    8 1.00
                  6665  0.00069158396281299
                  1000  0.0053257961529341
                   228   0.027060721042034
                 64.71    0.10165684614077
                 21.06     0.2745748236174
                 7.495    0.44829431892377
                 2.797    0.28490261071525
                0.5215   0.015194859206082
 s    8 1.00
                  6665  -0.00029326965268655
                  1000  -0.0023180354739745
                   228  -0.011499786038565
                 64.71  -0.046826727009787
                 21.06   -0.12846616875047
                 7.495   -0.30126627246289
                 2.797   -0.25563070233011
                0.5215      1.093793361012
 s    1 1.00
                0.1596                   1
 s    1 1.00
                0.0469                   1
 p    3 1.00
                 9.439   0.056979251590039
                 2.002    0.31320721150073
                0.5456    0.76037674173753
 p    1 1.00
                0.1517                   1
 p    1 1.00
               0.04041                   1
 d    1 1.00
                  0.55                   1
 d    1 1.00
                 0.151                   1

6 0
 s    8 1.00
                  6665  0.00069158396281299
                  1000  0.0053257961529341
                   228   0.027060721042034
                 64.71    0.10165684614077
                 21.06     0.2745748236174
                 7.495    0.44829431892377
                 2.797    0.28490261071525
                0.5215   0.015194859206082
 s    8 1.00
                  6665  -0.00029326965268655
                  1000  -0.0023180354739745
                   228  -0.011499786038565
                 64.71  -0.046826727009787
                 21.06   -0.12846616875047
                 7.495   -0.30126627246289
                 2.797   -0.25563070233011
                0.5215      1.093793361012
 s    1 1.00
                0.1596                   1
 s    1 1.00
                0.0469                   1
 p    3 1.00
                 9.439   0.056979251590039
                 2.002    0.31320721150073
                0.5456    0.76037674173753
 p    1 1.00
                0.1517                   1
 p    1 1.00
               0.04041                   1
 d    1 1.00
                  0.55                   1
 d    1 1.00
                 0.151                   1

7 0
 s    3 1.00
                 13.01   0.033498726389998
                 1.962    0.23480080117413
                0.4446     0.8136829578829
 s    1 1.00
                 0.122                   1
 s    1 1.00
               0.02974                   1
 p    1 1.00
                 0.727                   1
 p    1 1.00
                 0.141                   1

8 0
 s    3 1.00
                 13.01   0.033498726389998
                 1.962    0.23480080117413
                0.4446     0.8136829578829
 s    1 1.00
                 0.122                   1
 s    1 1.00
               0.02974                   1
 p    1 1.00
                 0.727                   1
 p    1 1.00
                 0.141                   1

9 0
 s    3 1.00
                 13.01   0.033498726389998
                 1.962    0.23480080117413
                0.4446     0.8136829578829
 s    1 1.00
                 0.122                   1
 s    1 1.00
               0.02974                   1
 p    1 1.00
                 0.727                   1
 p    1 1.00
                 0.141                   1

10 0
 s    8 1.00
                  6665  0.00069158396281299
                  1000  0.0053257961529341
                   228   0.027060721042034
                 64.71    0.10165684614077
                 21.06     0.2745748236174
                 7.495    0.44829431892377
                 2.797    0.28490261071525
                0.5215   0.015194859206082
 s    8 1.00
                  6665  -0.00029326965268655
                  1000  -0.0023180354739745
                   228  -0.011499786038565
                 64.71  -0.046826727009787
                 21.06   -0.12846616875047
                 7.495   -0.30126627246289
                 2.797   -0.25563070233011
                0.5215      1.093793361012
 s    1 1.00
                0.1596                   1
 s    1 1.00
                0.0469                   1
 p    3 1.00
                 9.439   0.056979251590039
                 2.002    0.31320721150073
                0.5456    0.76037674173753
 p    1 1.00
                0.1517                   1
 p    1 1.00
               0.04041                   1
 d    1 1.00
                  0.55                   1
 d    1 1.00
                 0.151                   1

11 0
 s    3 1.00
                 13.01   0.033498726389998
                 1.962    0.23480080117413
                0.4446     0.8136829578829
 s    1 1.00
                 0.122                   1
 s    1 1.00
               0.02974                   1
 p    1 1.00
                 0.727                   1
 p    1 1.00
                 0.141                   1

12 0
 s    8 1.00
                  6665  0.00069158396281299
                  1000  0.0053257961529341
                   228   0.027060721042034
                 64.71    0.10165684614077
                 21.06     0.2745748236174
                 7.495    0.44829431892377
                 2.797    0.28490261071525
                0.5215   0.015194859206082
 s    8 1.00
                  6665  -0.00029326965268655
                  1000  -0.0023180354739745
                   228  -0.011499786038565
                 64.71  -0.046826727009787
                 21.06   -0.12846616875047
                 7.495   -0.30126627246289
                 2.797   -0.25563070233011
                0.5215      1.093793361012
 s    1 1.00
                0.1596                   1
 s    1 1.00
                0.0469                   1
 p    3 1.00
                 9.439   0.056979251590039
                 2.002    0.31320721150073
                0.5456    0.76037674173753
 p    1 1.00
                0.1517                   1
 p    1 1.00
               0.04041                   1
 d    1 1.00
                  0.55                   1
 d    1 1.00
                 0.151                   1

13 0
 s    3 1.00
                 13.01   0.033498726389998
                 1.962    0.23480080117413
                0.4446     0.8136829578829
 s    1 1.00
                 0.122                   1
 s    1 1.00
               0.02974                   1
 p    1 1.00
                 0.727                   1
 p    1 1.00
                 0.141                   1

14 0
 s    3 1.00
                 13.01   0.033498726389998
                 1.962    0.23480080117413
                0.4446     0.8136829578829
 s    1 1.00
                 0.122                   1
 s    1 1.00
               0.02974                   1
 p    1 1.00
                 0.727                   1
 p    1 1.00
                 0.141                   1

15 0
 s    3 1.00
                 13.01   0.033498726389998
                 1.962    0.23480080117413
                0.4446     0.8136829578829
 s    1 1.00
                 0.122                   1
 s    1 1.00
               0.02974                   1
 p    1 1.00
                 0.727                   1
 p    1 1.00
                 0.141                   1

16 0
 s    8 1.00
                  6665  0.00069158396281299
                  1000  0.0053257961529341
                   228   0.027060721042034
                 64.71    0.10165684614077
                 21.06     0.2745748236174
                 7.495    0.44829431892377
                 2.797    0.28490261071525
                0.5215   0.015194859206082
 s    8 1.00
                  6665  -0.00029326965268655
                  1000  -0.0023180354739745
                   228  -0.011499786038565
                 64.71  -0.046826727009787
                 21.06   -0.12846616875047
                 7.495   -0.30126627246289
                 2.797   -0.25563070233011
                0.5215      1.093793361012
 s    1 1.00
                0.1596                   1
 s    1 1.00
                0.0469                   1
 p    3 1.00
                 9.439   0.056979251590039
                 2.002    0.31320721150073
                0.5456    0.76037674173753
 p    1 1.00
                0.1517                   1
 p    1 1.00
               0.04041                   1
 d    1 1.00
                  0.55                   1
 d    1 1.00
                 0.151                   1

17 0
 s    3 1.00
                 13.01   0.033498726389998
                 1.962    0.23480080117413
                0.4446     0.8136829578829
 s    1 1.00
                 0.122                   1
 s    1 1.00
               0.02974                   1
 p    1 1.00
                 0.727                   1
 p    1 1.00
                 0.141                   1

18 0
 s    3 1.00
                 13.01   0.033498726389998
                 1.962    0.23480080117413
                0.4446     0.8136829578829
 s    1 1.00
                 0.122                   1
 s    1 1.00
               0.02974                   1
 p    1 1.00
                 0.727                   1
 p    1 1.00
                 0.141                   1

19 0
 s    3 1.00
                 13.01   0.033498726389998
                 1.962    0.23480080117413
                0.4446     0.8136829578829
 s    1 1.00
                 0.122                   1
 s    1 1.00
               0.02974                   1
 p    1 1.00
                 0.727                   1
 p    1 1.00
                 0.141                   1

20 0
 s    3 1.00
                 13.01   0.033498726389998
                 1.962    0.23480080117413
                0.4446     0.8136829578829
 s    1 1.00
                 0.122                   1
 s    1 1.00
               0.02974                   1
 p    1 1.00
                 0.727                   1
 p    1 1.00
                 0.141                   1

[5d]
[7f]
[9g]

[MO]
 Sym= A
 Ene=               0
 Spin= Alpha
 Occup=    1.00000
   1       1.0120810066725
   2     0.026781617906271
   3     -0.10544286201445
   4    -0.025963201591648
   5    -0.0015856882333709
   6    -5.3711346335181e-05
   7    -8.3677173889845e-05
   8    -0.041497074540876
   9    -0.0020865964873239
  10    -0.0025907834757342
  11    -0.0066919787190351
  12    0.0016826649609034
  13    0.00058246848712065
  14    0.00056787109285075
  15    -0.00013690918296792
  16    -1.1878773887957e-05
  17    -0.0010754256819492
  18    -9.7856366493922e-05
  19    0.0042899012285436
  20    -0.00065603025327873
  21    -0.00013838388331265
  22    -0.0073364080803569
  23    -0.0014566825104395
  24    -0.00075068579558641
  25     0.011307962632801
  26    -0.00060235167359996
  27    -0.00047428829356084
  28    -0.0011499796593247
  29    0.0014087358900804
  30    0.0033573074796336
  31    0.0023738881347216
  32    -0.002848070227336
  33    -0.00068741178697809
  34      0.01007971293597
  35    0.0010414417630343
  36    -0.00027220095669679
  37    -0.00077481969891306
  38    -0.0016729609734376
  39    0.0029573939188761
  40    0.0014272853420142
  41    0.0032445724844058
  42    -0.00086624036417445
  43    0.0074017270908809
  44     -0.00227002178557
  45    -0.00056905458164821
  46    0.0018887181775082
  47    0.00020511413998283
  48    0.0032740638204969
  49    -0.0025760396759387
  50    -0.00011813697277808
  51    0.00082266613588953
  52    0.0032447371768249
  53    0.0093258357520535
  54    -0.012915895061092
  55    0.0032300847724889
  56    0.0018914692269436
  57    0.00042023430278993
  58    -0.053035747476073
  59     0.010291954401368
  60    -0.0039349291581874
  61    -0.0069587838288771
  62    0.0043476169104828
  63    -0.0017276243644241
  64    0.00064771873830335
  65    -7.9913853861397e-05
  66    -7.6118606412586e-05
  67    -0.00071073701562724
  68    0.00029376005331111
  69    -0.005665132616349
  70    0.00095009923369841
  71    -0.0006109888801765
  72     0.014719791486373
  73    0.0011640442021774
  74    0.00032355524629005
  75    0.00088895454165606
  76    0.0085175653334192
  77    -0.020152857893602
  78    -0.0023879882596326
  79    -0.00093870302648999
  80    -0.00030077321379956
  81    -0.0096444612045682
  82     0.020108211362042
  83    0.0043158468814355
  84    -0.015061473826665
  85    0.0058849429488997
  86    0.00011702982274617
  87    0.00011128914601795
  88    3.3463441784636e-05
  89    9.4045134840271e-05
  90    -0.00056899685474659
  91    0.00015897871782275
  92    -0.0050302494833342
  93    0.00030157111895658
  94    0.0009059938592077
  95    -0.0019855116253162
  96    -0.0050502305091598
  97    0.0032415745745542
  98     0.025938385791749
  99    0.0037011297651882
 100    0.00033449811915454
 101    -6.2690912768242e-05
 102    -0.00023266158047129
 103    0.00031771439426669
 104    -0.0036501706470441
 105    -0.0057507149370991
 106    0.0031845346931792
 107     0.017410066421631
 108    0.00041599450934461
 109    0.00040883180908405
 110    -4.143866228279e-05
 111    0.00022219904411858
 112    -0.0011542637091379
 113    -0.0029639532338217
 114    0.0025336721938634
 115     0.002078208515715
 116     0.012290637827936
 117    0.00094825605325253
 118    0.00015599975956119
 119    -0.00013368057600059
 120    -4.6263625234323e-05
 121     0.001043150575566
 122     0.001981333602727
 123    -0.0013613145505516
 124    0.00012731677439229
 125    -0.0010475833044544
 126    0.0024007386159045
 127     0.031039605961146
 128    0.0016428362731792
 129    -7.4483123813176e-05
 130    5.554038632381e-05
 131    -0.001901687927748
 132    -0.0046528645373983
 133    -0.0033939407358417
 134    -0.011545195523113
 135    -0.0013600834392917
 136    0.00068282105516369
 137    -3.1547641650297e-05
 138    -3.1377194659797e-05
 139    -4.70891577937e-05
 140    2.6015408283162e-05
 141    0.00023510945035314
 142    4.9144385541971e-05
 143    0.00052925005814418
 144    -0.0012114226549621
 145     0.001355756200417
 146    -0.0013511494417793
 147    0.0023548054931917
 148      0.01717365836831
 149    -0.00063539582149086
 150    0.00023094988132578
 151    -0.00016304047423577
 152    1.9101067416979e-06
 153    0.0022299369618895
 154    0.0023624289340785
 155     0.003104047424784
 156    -0.0001535847337283
 157    -0.00037306938115572
 158     0.004967127212142
 159    -0.0052160355083889
 160    -2.9813494278852e-05
 161    -0.0002056732748715
 162    -0.00023197749207048
 163    -0.0021633830035853
 164    0.0027422863559285
 165    -0.0046292042589611
 166    -0.0054510710003481
 167    0.0020272202112286
 168    -0.0010171213844591
 169    3.6663238663057e-05
 170    7.6546582349601e-05
 171    6.6053729374521e-05
 172    -5.3974878175839e-05
 173    -7.8339176518646e-05
 174    0.00054870237568085
 175    -0.00052564976119258
 176    -0.0011647371657567
 177    -4.6905935518133e-05
 178    4.9895903410505e-05
 179    4.7842561365328e-05
 180    -0.00016784614956022
 181    0.0018063901134535
 182    0.00016599168107015
 183    0.0001353130801083
 184    4.0246815251769e-05
 185    0.00045274068437963
 186    -3.6544511630092e-05
 187    0.00031984167312173
 188    0.00019274420734296
 189    -0.0075301333182108
 190    0.0025282169339215
 191    8.097578434585e-05
 192    -1.0484802289116e-05
 193    -5.6999059414271e-06
 194    0.0010982942308927
 195    -0.0023682427071323
 196    -0.00064679370374467
 197    -0.00011673108332624
 198    -0.0048891170826763
 199    -0.0033499504761435
 200    -7.0760383486086e-05
 201    0.00011488802283451
 202    4.6164379788392e-05
 203    0.0013767259832395
 204    0.00086736831282635
 205    0.0018329800911516
 206    -6.3204663932513e-06
 207    -3.5890140398861e-05
 208    0.0020072695443147
 209      0.01316057289545
 210    0.00015790051838535
 211    -2.3426970967704e-05
 212    0.00011107442200095
 213    0.00081762473769764
 214    -0.00093329755943019
 215    0.0015194355143159
 216    -0.0036171736460546
 217    -0.00078905810284442
 218    -0.00083907823098399
 219    2.7428677371557e-05
 220    -3.0610076540973e-06
 221    1.8596632736889e-05
 222    -2.524028546406e-05
 223    2.0602931561243e-05
 224    6.6373110067642e-06
 225    -0.00059434549577331
 226    0.00065644013265679
 227    -7.172374331925e-05
 228    0.00043362590601604
 229    -6.6084751137562e-05
 230    0.0017764658151569
 231    -4.530238734169e-05
 232    2.8420844109096e-05
 233    5.7709856406207e-06
 234    -3.9363305996156e-05
 235    0.00061207240207265
 236    0.00067798072815321
 237    -0.00066041373911037
 238    5.6885535055341e-05
 239    -0.00056896309636716
 240    0.0011516395732294
 241    -1.5159336195911e-06
 242    3.5822629534954e-05
 243    -3.0680085549839e-05
 244    -0.00020725558472002
 245    0.00012784677358204
 246    -6.0946225373975e-06
 247    -8.1417559352672e-06
 248    -0.0021732748936476
 249    -0.00045101592969005
 250    -5.8357951313404e-06
 251    -3.3555680010021e-05
 252    7.5659221716621e-06
 253    0.0003283727411964
 254    -0.00037856577131584
 255    0.00024522918935762
 256    0.00017537682748653
 257    -0.0018975349863525
 258     0.002061513670683
 259    -1.2742829460014e-05
 260    -4.3268747249996e-07
 261    -6.2867226525044e-06
 262    0.00035724982080489
 263    -7.7487053508052e-05
 264    0.00054925137759199
 Sym= A
 Ene=               1
 Spin= Alpha
 Occup=    1.00000
   1     0.023397377631052
   2     -0.38040077697305
   3     -0.19279427537378
   4     -0.15175068823182
   5    -0.041945693548069
   6    -0.0031014808055759
   7    -0.0027265691172041
   8    -0.083578875128279
   9    0.0081956924144238
  10    -0.0018270225294383
  11    -0.064945798072901
  12     0.014308236847521
  13    -0.0013216024981437
  14    0.0031534594730725
  15    -0.00053248828733297
  16    -2.1053192978257e-06
  17    -0.0050121978517885
  18    -7.3470052993384e-05
  19    0.0060439517270497
  20    -0.00064548373294784
  21    0.00060029496728676
  22    -0.020894196114293
  23    -0.0052582055200636
  24      -0.1689394409634
  25    -0.0098760360265888
  26    -0.007941648525738
  27    -0.008266791752851
  28    -0.012415095654837
  29     0.015819049620671
  30    0.0026746410280405
  31    -0.0048063822859971
  32    0.0093573593195403
  33     -0.16857600219169
  34    -0.011217790314137
  35    -0.0062148420240892
  36    -0.0064282642340488
  37    -0.0082740185718122
  38    -0.019096159262643
  39    0.0045928564207327
  40    -0.0034659679481263
  41    -0.010030593439845
  42     -0.17040313139918
  43    -0.050643079316716
  44    -0.030394123804056
  45    -0.0087349682432406
  46     0.019592450338364
  47    0.0019011705665582
  48    -0.00094099422544285
  49     0.019499378153423
  50    0.0025866150920216
  51     -0.01284789411021
  52    -0.098231952425262
  53    -0.019421921579357
  54    -0.015310294090787
  55      0.17876552975938
  56    0.0017517355004588
  57    0.0098448083462214
  58     0.062895737547476
  59    -0.043721794985732
  60    -0.0037618791352696
  61    -0.037043603730863
  62     0.014175380642578
  63    -0.0084249449850896
  64    0.0086938110347124
  65    -0.0018450068526411
  66    5.9300073455894e-05
  67    -0.015562529498891
  68    -0.0010825246477375
  69    -0.0052484096960144
  70    0.0029144802321973
  71    0.0020813063274205
  72     -0.01057667337035
  73    -0.00081320846578128
  74    0.00041950633324361
  75    0.0083897083729774
  76     -0.01638415752593
  77     0.023575101422653
  78    -0.0096922296978928
  79     0.014897624665235
  80    0.00088315855142379
  81    0.0087162853216391
  82    -0.029705941143459
  83    -0.0082245848024621
  84    -0.044419301100999
  85     0.023015191547453
  86    0.0050287130776257
  87    0.0019247925844418
  88    0.00030958562439129
  89    0.00029714802209574
  90    -0.0031572012692579
  91    0.0045391764507963
  92    0.0088669872662068
  93    2.0334227769636e-05
  94    -0.00090395550168743
  95    -0.001881869164821
  96     0.014676192077827
  97    0.00053690913394557
  98     0.059722315483325
  99     0.040535912143058
 100    0.0047125535655272
 101    0.0012672467298875
 102    0.0023870449931156
 103    -0.013891840155447
 104    -0.0068061655630978
 105    -0.0086367068458552
 106    0.00050000489457456
 107     0.057937794003186
 108     0.016570493429251
 109    0.0050081855902426
 110    0.0016473334558425
 111    -0.0015450817176362
 112    -0.011211384276395
 113    -0.0079970201992401
 114    0.0057772551447292
 115     0.002447973844643
 116    -0.013297427836046
 117    0.0030859147273445
 118    -0.00038386271275849
 119    0.00094057611547363
 120    -4.2120900937775e-05
 121    -0.0042494999463946
 122    0.0005161977037957
 123    0.0029197245722699
 124    0.00021588659797472
 125    -0.0085760056712098
 126    -0.0080780106377164
 127      0.09678329590874
 128     0.017444465434251
 129    -0.0058718633725215
 130    0.00033662604464837
 131    0.0041188895570796
 132    -0.0021438600567351
 133    -0.0091250317794772
 134    -0.018213655575086
 135    -0.0020863455807962
 136     0.004308191799379
 137    -0.00046919811914839
 138    3.7171315079962e-05
 139    1.7886784118444e-05
 140    -0.00037395551687232
 141    -0.00075796011611314
 142    -0.0025777536004006
 143    -0.0074116275603603
 144    0.0010955916880075
 145    -0.0014531995695867
 146    -0.00028207352511926
 147    0.0044939506196303
 148    -0.018792428298448
 149    0.0078931259242678
 150    -0.00037293670164768
 151    0.00097859608238871
 152    0.00027431095886754
 153    -0.004607652830346
 154    -0.00083382221337442
 155    -0.0056978089574993
 156    -5.6855508205739e-05
 157    -0.0019082406162007
 158      0.01845443773363
 159    -0.025500193214394
 160    0.0018229844946125
 161    -0.0044250726556867
 162    -0.00076199800625008
 163    -0.0046821959431213
 164    -0.0054051871129729
 165    -0.0036757745317444
 166    -0.012192894755258
 167       0.0140489972273
 168    0.0023766556898534
 169    7.8252680851244e-05
 170    -0.00038352571600408
 171    0.00024374375766084
 172    -0.00025718200729781
 173    -0.00015413641569284
 174    0.0033686244193828
 175    -0.0048924810066472
 176    0.0039193185037261
 177     -0.00645438708904
 178    0.0014669972825784
 179    -0.0032996935424639
 180    -0.023573226241886
 181    -0.0061021095173561
 182    0.00058206838399703
 183    6.3342770407832e-05
 184    -0.00043544916719975
 185    0.0011417143527418
 186    0.0038790176882824
 187    -0.0046822503322319
 188    0.0086029560703988
 189    -0.00016613181742223
 190    0.0058029953924866
 191    0.0007685509746605
 192    7.137209315598e-05
 193    0.00021376674305547
 194    -0.0014522639912982
 195    0.00011009284981084
 196    0.00067291301139681
 197    -0.002302558936092
 198    -0.013346820251576
 199    -0.033074907155794
 200    -0.00034059350271825
 201    0.00026258968167257
 202    -0.00020354869638308
 203    -0.0052249747367755
 204    0.0045907683314871
 205    -0.00033241192339394
 206    -1.4863533713198e-05
 207    -0.0014645428681085
 208    0.0044443444461577
 209     0.033774607637739
 210    -0.00024566947025089
 211    0.0017174006564712
 212    0.00049116978092198
 213    -0.0055678540705853
 214    0.00099056884050499
 215    0.0011671811904128
 216      -0.0144271502763
 217    -0.0015511560408197
 218    -0.00082181221123437
 219    0.00021111264169727
 220    7.0126462857733e-05
 221    6.0057059466498e-05
 222    4.9225288137033e-05
 223    0.00037376816755244
 224    -0.00035428984691685
 225    -0.0024368868864251
 226    -0.00047319268488431
 227    0.0010090351036959
 228    -0.0010140097052565
 229    0.0008627617973916
 230    -0.012312376013586
 231    0.00065553482402487
 232    -4.5081619745636e-05
 233    -8.1816969164564e-05
 234    -4.9158916665656e-05
 235    -0.00025202785047156
 236    -0.0027241206779746
 237    0.0040428053165712
 238    -4.84546797835e-06
 239    -0.0047014341886884
 240    0.0085483213660482
 241    4.1686369795377e-05
 242    0.00014824707788696
 243    -7.4980649808601e-05
 244    0.0005909830221679
 245    0.00061422936263206
 246    -0.00033329534505148
 247    -0.0025655860822836
 248    -0.004137409405188
 249    0.0015152109613866
 250    5.6942121976075e-06
 251    -0.00013053088035278
 252    -3.8729452563981e-05
 253    -0.00047613236656978
 254    -0.00077746181372069
 255    -0.00045822361001843
 256    0.0010190029246623
 257    0.0078487135393126
 258    0.0070820202138561
 259    0.00011610409921554
 260    9.9040924252534e-05
 261    5.4152430675343e-05
 262    -0.00085514731060965
 263    -0.00069698749744952
 264    -0.0028081820928737
 Sym= A
 Ene=               2
 Spin= Alpha
 Occup=    1.00000
   1    -0.00023002567929466
   2     0.046661494848877
   3     -0.17856232294898
   4      0.12844358450269
   5     -0.43294418310491
   6    -0.024058217123686
   7    -0.026316626647267
   8     -0.21233930884643
   9    -0.019833029482563
  10    -0.015281504722802
  11     0.029322056317378
  12     0.005895354639591
  13    0.0055593868426893
  14    0.0093282623680071
  15    -0.0017920762445766
  16    -0.00012671394712745
  17    -0.015395125966251
  18    -0.00084560174104344
  19    -0.0081728058504942
  20    -0.0011981327107638
  21    0.00045566914347727
  22    0.00044899329587411
  23    -0.011990759483398
  24      0.15922527621007
  25      0.07481766139059
  26     0.011003115523181
  27    -0.007934226266333
  28    0.0073434654950847
  29    -0.010577787148662
  30    0.0029602356541063
  31    0.0085848733762358
  32    -0.0090119371784042
  33      0.16110383502833
  34      0.07471703341682
  35     0.017052005633386
  36    -0.0089130274054644
  37    0.0047440988175313
  38     0.011195135258958
  39    0.0011144290497787
  40    0.0063799581720341
  41     0.010310096529511
  42      0.15260619390845