[Molden Format]
made by pyscf v[2.1.1]
[Atoms] (AU)
C   1   6    -7.94938881190020     0.71477643442431    -0.35400806409315
H   2   1    -8.73445852281563    -0.47027516466052     1.14602346337942
H   3   1    -8.56431759810825    -0.07613876631224    -2.16129847695369
H   4   1    -8.78695001229551     2.59296559202629    -0.17246585475843
C   5   6    -5.07120024185187     0.83234517834629    -0.18986569702298
C   6   6    -3.82427787561309    -1.76399905501811    -0.43179467158601
H   7   1    -4.53632724626705     1.71196903665785     1.60204933717027
H   8   1    -4.35037120362318     2.07434764261976    -1.68183168442329
H   9   1    -4.48067745751518    -2.98267058261247     1.11013586352042
C   10   6    -0.93052665503852    -1.73960325766781    -0.46299782935482
H   11   1    -4.48763920855808    -2.65145752886950    -2.18001659216274
C   12   6     0.31639835681683    -0.87865499572749     1.99836251104145
H   13   1    -0.27412707313643    -0.53709436864425    -2.01756609689189
H   14   1    -0.26716740079227    -3.65025167399361    -0.90264185634444
H   15   1    -0.21847274904187     1.07250744795546     2.41986592312568
C   16   6     3.19458654891994    -1.06630895729428     1.92384815330588
H   17   1    -0.40443068141185    -2.02704723080406     3.56352307145192
H   18   1     3.97965625983537     0.10364524183618     0.41201207365100
H   19   1     3.80951344540187    -3.01099927797322     1.59214358179792
H   20   1     4.03214963904138    -0.43716224967022     3.70281516203884
[GTO]
1 0
 s    8 1.00
                  6665  0.00069158396281299
                  1000  0.0053257961529341
                   228   0.027060721042034
                 64.71    0.10165684614077
                 21.06     0.2745748236174
                 7.495    0.44829431892377
                 2.797    0.28490261071525
                0.5215   0.015194859206082
 s    8 1.00
                  6665  -0.00029326965268655
                  1000  -0.0023180354739745
                   228  -0.011499786038565
                 64.71  -0.046826727009787
                 21.06   -0.12846616875047
                 7.495   -0.30126627246289
                 2.797   -0.25563070233011
                0.5215      1.093793361012
 s    1 1.00
                0.1596                   1
 s    1 1.00
                0.0469                   1
 p    3 1.00
                 9.439   0.056979251590039
                 2.002    0.31320721150073
                0.5456    0.76037674173753
 p    1 1.00
                0.1517                   1
 p    1 1.00
               0.04041                   1
 d    1 1.00
                  0.55                   1
 d    1 1.00
                 0.151                   1

2 0
 s    3 1.00
                 13.01   0.033498726389998
                 1.962    0.23480080117413
                0.4446     0.8136829578829
 s    1 1.00
                 0.122                   1
 s    1 1.00
               0.02974                   1
 p    1 1.00
                 0.727                   1
 p    1 1.00
                 0.141                   1

3 0
 s    3 1.00
                 13.01   0.033498726389998
                 1.962    0.23480080117413
                0.4446     0.8136829578829
 s    1 1.00
                 0.122                   1
 s    1 1.00
               0.02974                   1
 p    1 1.00
                 0.727                   1
 p    1 1.00
                 0.141                   1

4 0
 s    3 1.00
                 13.01   0.033498726389998
                 1.962    0.23480080117413
                0.4446     0.8136829578829
 s    1 1.00
                 0.122                   1
 s    1 1.00
               0.02974                   1
 p    1 1.00
                 0.727                   1
 p    1 1.00
                 0.141                   1

5 0
 s    8 1.00
                  6665  0.00069158396281299
                  1000  0.0053257961529341
                   228   0.027060721042034
                 64.71    0.10165684614077
                 21.06     0.2745748236174
                 7.495    0.44829431892377
                 2.797    0.28490261071525
                0.5215   0.015194859206082
 s    8 1.00
                  6665  -0.00029326965268655
                  1000  -0.0023180354739745
                   228  -0.011499786038565
                 64.71  -0.046826727009787
                 21.06   -0.12846616875047
                 7.495   -0.30126627246289
                 2.797   -0.25563070233011
                0.5215      1.093793361012
 s    1 1.00
                0.1596                   1
 s    1 1.00
                0.0469                   1
 p    3 1.00
                 9.439   0.056979251590039
                 2.002    0.31320721150073
                0.5456    0.76037674173753
 p    1 1.00
                0.1517                   1
 p    1 1.00
               0.04041                   1
 d    1 1.00
                  0.55                   1
 d    1 1.00
                 0.151                   1

6 0
 s    8 1.00
                  6665  0.00069158396281299
                  1000  0.0053257961529341
                   228   0.027060721042034
                 64.71    0.10165684614077
                 21.06     0.2745748236174
                 7.495    0.44829431892377
                 2.797    0.28490261071525
                0.5215   0.015194859206082
 s    8 1.00
                  6665  -0.00029326965268655
                  1000  -0.0023180354739745
                   228  -0.011499786038565
                 64.71  -0.046826727009787
                 21.06   -0.12846616875047
                 7.495   -0.30126627246289
                 2.797   -0.25563070233011
                0.5215      1.093793361012
 s    1 1.00
                0.1596                   1
 s    1 1.00
                0.0469                   1
 p    3 1.00
                 9.439   0.056979251590039
                 2.002    0.31320721150073
                0.5456    0.76037674173753
 p    1 1.00
                0.1517                   1
 p    1 1.00
               0.04041                   1
 d    1 1.00
                  0.55                   1
 d    1 1.00
                 0.151                   1

7 0
 s    3 1.00
                 13.01   0.033498726389998
                 1.962    0.23480080117413
                0.4446     0.8136829578829
 s    1 1.00
                 0.122                   1
 s    1 1.00
               0.02974                   1
 p    1 1.00
                 0.727                   1
 p    1 1.00
                 0.141                   1

8 0
 s    3 1.00
                 13.01   0.033498726389998
                 1.962    0.23480080117413
                0.4446     0.8136829578829
 s    1 1.00
                 0.122                   1
 s    1 1.00
               0.02974                   1
 p    1 1.00
                 0.727                   1
 p    1 1.00
                 0.141                   1

9 0
 s    3 1.00
                 13.01   0.033498726389998
                 1.962    0.23480080117413
                0.4446     0.8136829578829
 s    1 1.00
                 0.122                   1
 s    1 1.00
               0.02974                   1
 p    1 1.00
                 0.727                   1
 p    1 1.00
                 0.141                   1

10 0
 s    8 1.00
                  6665  0.00069158396281299
                  1000  0.0053257961529341
                   228   0.027060721042034
                 64.71    0.10165684614077
                 21.06     0.2745748236174
                 7.495    0.44829431892377
                 2.797    0.28490261071525
                0.5215   0.015194859206082
 s    8 1.00
                  6665  -0.00029326965268655
                  1000  -0.0023180354739745
                   228  -0.011499786038565
                 64.71  -0.046826727009787
                 21.06   -0.12846616875047
                 7.495   -0.30126627246289
                 2.797   -0.25563070233011
                0.5215      1.093793361012
 s    1 1.00
                0.1596                   1
 s    1 1.00
                0.0469                   1
 p    3 1.00
                 9.439   0.056979251590039
                 2.002    0.31320721150073
                0.5456    0.76037674173753
 p    1 1.00
                0.1517                   1
 p    1 1.00
               0.04041                   1
 d    1 1.00
                  0.55                   1
 d    1 1.00
                 0.151                   1

11 0
 s    3 1.00
                 13.01   0.033498726389998
                 1.962    0.23480080117413
                0.4446     0.8136829578829
 s    1 1.00
                 0.122                   1
 s    1 1.00
               0.02974                   1
 p    1 1.00
                 0.727                   1
 p    1 1.00
                 0.141                   1

12 0
 s    8 1.00
                  6665  0.00069158396281299
                  1000  0.0053257961529341
                   228   0.027060721042034
                 64.71    0.10165684614077
                 21.06     0.2745748236174
                 7.495    0.44829431892377
                 2.797    0.28490261071525
                0.5215   0.015194859206082
 s    8 1.00
                  6665  -0.00029326965268655
                  1000  -0.0023180354739745
                   228  -0.011499786038565
                 64.71  -0.046826727009787
                 21.06   -0.12846616875047
                 7.495   -0.30126627246289
                 2.797   -0.25563070233011
                0.5215      1.093793361012
 s    1 1.00
                0.1596                   1
 s    1 1.00
                0.0469                   1
 p    3 1.00
                 9.439   0.056979251590039
                 2.002    0.31320721150073
                0.5456    0.76037674173753
 p    1 1.00
                0.1517                   1
 p    1 1.00
               0.04041                   1
 d    1 1.00
                  0.55                   1
 d    1 1.00
                 0.151                   1

13 0
 s    3 1.00
                 13.01   0.033498726389998
                 1.962    0.23480080117413
                0.4446     0.8136829578829
 s    1 1.00
                 0.122                   1
 s    1 1.00
               0.02974                   1
 p    1 1.00
                 0.727                   1
 p    1 1.00
                 0.141                   1

14 0
 s    3 1.00
                 13.01   0.033498726389998
                 1.962    0.23480080117413
                0.4446     0.8136829578829
 s    1 1.00
                 0.122                   1
 s    1 1.00
               0.02974                   1
 p    1 1.00
                 0.727                   1
 p    1 1.00
                 0.141                   1

15 0
 s    3 1.00
                 13.01   0.033498726389998
                 1.962    0.23480080117413
                0.4446     0.8136829578829
 s    1 1.00
                 0.122                   1
 s    1 1.00
               0.02974                   1
 p    1 1.00
                 0.727                   1
 p    1 1.00
                 0.141                   1

16 0
 s    8 1.00
                  6665  0.00069158396281299
                  1000  0.0053257961529341
                   228   0.027060721042034
                 64.71    0.10165684614077
                 21.06     0.2745748236174
                 7.495    0.44829431892377
                 2.797    0.28490261071525
                0.5215   0.015194859206082
 s    8 1.00
                  6665  -0.00029326965268655
                  1000  -0.0023180354739745
                   228  -0.011499786038565
                 64.71  -0.046826727009787
                 21.06   -0.12846616875047
                 7.495   -0.30126627246289
                 2.797   -0.25563070233011
                0.5215      1.093793361012
 s    1 1.00
                0.1596                   1
 s    1 1.00
                0.0469                   1
 p    3 1.00
                 9.439   0.056979251590039
                 2.002    0.31320721150073
                0.5456    0.76037674173753
 p    1 1.00
                0.1517                   1
 p    1 1.00
               0.04041                   1
 d    1 1.00
                  0.55                   1
 d    1 1.00
                 0.151                   1

17 0
 s    3 1.00
                 13.01   0.033498726389998
                 1.962    0.23480080117413
                0.4446     0.8136829578829
 s    1 1.00
                 0.122                   1
 s    1 1.00
               0.02974                   1
 p    1 1.00
                 0.727                   1
 p    1 1.00
                 0.141                   1

18 0
 s    3 1.00
                 13.01   0.033498726389998
                 1.962    0.23480080117413
                0.4446     0.8136829578829
 s    1 1.00
                 0.122                   1
 s    1 1.00
               0.02974                   1
 p    1 1.00
                 0.727                   1
 p    1 1.00
                 0.141                   1

19 0
 s    3 1.00
                 13.01   0.033498726389998
                 1.962    0.23480080117413
                0.4446     0.8136829578829
 s    1 1.00
                 0.122                   1
 s    1 1.00
               0.02974                   1
 p    1 1.00
                 0.727                   1
 p    1 1.00
                 0.141                   1

20 0
 s    3 1.00
                 13.01   0.033498726389998
                 1.962    0.23480080117413
                0.4446     0.8136829578829
 s    1 1.00
                 0.122                   1
 s    1 1.00
               0.02974                   1
 p    1 1.00
                 0.727                   1
 p    1 1.00
                 0.141                   1

[5d]
[7f]
[9g]

[MO]
 Sym= A
 Ene=               0
 Spin= Alpha
 Occup=    1.00000
   1    -0.00017702629281317
   2    -0.00029611184626799
   3    0.00095422836038741
   4     0.024536906699327
   5    -3.2626200334972e-05
   6    -0.00016381813371217
   7    0.00037010666212989
   8    -0.0014328295428537
   9    -0.00071465844415839
  10    -0.0017504594358822
  11     0.006351180629044
  12    -0.0016680346520055
  13    0.00034236590581669
  14    -9.395924572188e-06
  15    -7.1304573187203e-05
  16    -3.7125653121616e-05
  17    -3.4350809913248e-05
  18    5.8696421076787e-05
  19    0.00037266414951612
  20    0.00041038099324024
  21    0.00027798933039967
  22    -3.8769245914646e-06
  23    -0.00034275789902229
  24    0.00024250828477052
  25    0.00021635825918699
  26    0.0010057937893898
  27    -9.7130043543094e-05
  28    1.0459121653027e-05
  29    3.4089907385879e-05
  30    0.00013365709900259
  31    0.00012031503015552
  32    -0.00038729280958894
  33    -0.00027042308328159
  34    -0.0060008408977159
  35    0.0006707834607908
  36    7.1536491794185e-06
  37    -1.2474343672466e-05
  38    -2.949688083989e-05
  39    -0.00062722536179596
  40    -0.00069343395752496
  41    -0.0013460938801044
  42    -0.00014175611601031
  43    -0.0009170497313992
  44    0.0027679417344008
  45    -1.4354627855057e-05
  46    -6.7253214435415e-06
  47    4.1719485475173e-05
  48    0.00031138018123982
  49    0.00024424895104084
  50    -4.6641239280642e-05
  51     0.015680374957863
  52    0.00030054545293468
  53    -0.00097391477003366
  54    -0.0026615873268989
  55    4.3438533098247e-05
  56    9.4207792402825e-05
  57    2.5865680480611e-05
  58    -0.0032841504545389
  59    -0.0013457661012119
  60    0.0015122468721539
  61     0.011498525695343
  62    -0.0029156895433557
  63    -8.3060951054494e-05
  64    2.1789044873619e-05
  65    -4.0174453773312e-05
  66    3.5891520023877e-05
  67    -7.6846117547269e-05
  68    0.00011116625687832
  69    -9.2731278164311e-05
  70    -0.00022393550898784
  71    -0.00029712174168861
  72    0.00010590264631779
  73    0.00019018506220882
  74    -0.0071212285604225
  75    -0.001601973195802
  76     0.021982496087742
  77     0.030651618834578
  78    -0.00030594730052132
  79    -0.00014874477160038
  80    -5.4511634235949e-05
  81     0.020391614985828
  82    0.0034652146649867
  83    -0.0015184011514768
  84     0.019122454206473
  85    -0.0054473783609751
  86    -0.0017633476714178
  87    1.6160845522746e-05
  88    -0.00027110205967174
  89    -0.00010357585498222
  90    9.0466611257621e-05
  91    -7.3443984786699e-05
  92    -0.0027992090737555
  93    0.0034128409355057
  94    0.0013782897826802
  95    0.0026685700170016
  96    0.0010653995032905
  97    0.00011077251771203
  98    -0.0011199144338517
  99    -0.00097546816566501
 100    -2.7769141919562e-05
 101    2.783172863608e-05
 102    4.529114464842e-05
 103    0.00089318129220706
 104    0.00091067042574684
 105    0.0001937300274121
 106    8.7281759383901e-06
 107    0.0054067627735915
 108    -0.00023558863435036
 109    4.4391608238558e-05
 110    1.3947747930843e-05
 111    6.3708659568552e-05
 112    0.00018846517493343
 113    -0.0020346041745539
 114    0.0010085883279058
 115    -5.2895018356102e-06
 116     0.015519086626564
 117    0.0025468539079095
 118    -0.00030753056056376
 119    -9.8739325427683e-05
 120    2.3094186509542e-05
 121    0.0013937713612016
 122     0.002921883516275
 123    -0.0029617043636619
 124     0.022657467071762
 125    -0.00057183354626578
 126     0.019337720496238
 127    -0.073857687315929
 128    -7.4856064053624e-05
 129    -7.8820715444982e-05
 130    -0.00014931999240644
 131     0.041342492118911
 132       0.0131489097763
 133     0.035333757230341
 134     0.020740486649324
 135    -0.0021743847383663
 136    -0.0045695470773208
 137    -0.0003258342153255
 138    -0.00039259709294237
 139    -0.00031306334842257
 140    -0.00012618602629266
 141    -0.00011454589142103
 142    0.0077674938531693
 143     0.014618792306448
 144    0.0041965266838046
 145    -0.00075495439987861
 146    0.0046226431686693
 147    -0.00018642493181528
 148    -0.0031742834305256
 149    0.0023548138099214
 150    -0.00012892549120843
 151    1.7403891859808e-05
 152    4.4533987820394e-05
 153    -0.00070835152046992
 154    0.00020703954005621
 155    -0.0015853715284939
 156        1.013004949442
 157     0.029470149498804
 158     -0.13350281511775
 159     0.015667945783525
 160    -5.7456743105177e-05
 161    0.00012699916533887
 162    0.00025286256689059
 163      -0.0200121489023
 164     0.015595641707014
 165     0.044832713224521
 166    -0.0043723185504857
 167    -0.0043628869408149
 168    -0.0037259855522636
 169    -0.00014088490017851
 170    -0.00093630118325332
 171    -0.0005057671564803
 172    -0.0011117061332455
 173    -0.00014585756682639
 174    -0.0054018155070169
 175    0.00017350761534124
 176    -0.0080403401732818
 177    -0.0069063724449161
 178    0.00054955936379495
 179    -0.00061632071249999
 180     0.014334897713639
 181    -0.0029513591705512
 182    -0.00023827293107195
 183    -1.0751142080568e-05
 184    -0.00038994379901199
 185    -0.0010544583618434
 186    -0.0023869979817441
 187    0.00087185795252095
 188    -0.00056285173658537
 189     0.017570947294384
 190    -0.0063848074321273
 191    -0.00023620370123508
 192    -0.00020865675663874
 193    -0.00032177838841035
 194    -0.0019606623742685
 195    0.0035283228509101
 196    -0.00052600102741098
 197    -0.0012912926216506
 198    0.0032035664036918
 199    0.0027754714560509
 200    -0.00040376680305429
 201    0.0017581861935894
 202    0.00026977981604338
 203    0.0012352593705212
 204    -0.0047172510858306
 205    -0.0006120205000143
 206    0.0064909433358049
 207    -0.0013222982890666
 208     0.028912329130093
 209    -0.011315544382913
 210    6.6181650268168e-05
 211    -7.0996865485365e-06
 212    3.5858145045958e-05
 213    -0.035381481079219
 214    0.00036274131651204
 215    -0.005630335049756
 216    -0.00019081891133376
 217    0.0025690013237304
 218     0.002434451990499
 219    0.00043226411872962
 220    0.00035868139364714
 221    9.7295653331717e-05
 222    -0.00048952375720081
 223    0.00016596866358115
 224    -0.0047658042873344
 225    0.0038247104960306
 226    -0.00045635199774184
 227    0.0082014643928797
 228    0.00035852396065891
 229    -0.001287771395546
 230    -0.0051021673327563
 231    -0.00058052653255424
 232    -0.00064761609035721
 233    -0.0011252200371741
 234    0.0013101621606718
 235    0.00050228123121628
 236    0.0013088208806533
 237    -0.0015158698494093
 238    -0.00052337671915795
 239    0.0095551080564056
 240    0.00016081609883235
 241    0.00036525234121121
 242    5.6235809741057e-05
 243    -5.7999667571859e-05
 244    0.00037291010560422
 245    -0.0016846743732903
 246    0.0013039708442103
 247    -0.00042391425277169
 248    0.0095443273438165
 249    0.0032709811809446
 250    0.0003327831601233
 251    -0.00014234611668309
 252    3.5164989293464e-06
 253    0.00072160015639719
 254    0.0019311998769388
 255    -7.956204034944e-05
 256    -0.00040684876336136
 257    0.0091182170843267
 258    -0.00052556921429553
 259    0.00029730042446238
 260    0.00012610705570414
 261    0.00033026476753201
 262    -0.0017051758124438
 263    -0.00040264580588982
 264    -0.0011240855224969
 Sym= A
 Ene=               1
 Spin= Alpha
 Occup=    1.00000
   1    0.0013070061170096
   2    0.0011857199175638
   3    -0.011240183930105
   4    -0.013583610974971
   5    0.00014201747879949
   6    -3.0303445975063e-05
   7    6.5264580353471e-05
   8    -0.0095532573140244
   9    -0.004082912880043
  10    -0.0015313926883675
  11     -0.00436754969468
  12    -0.0011718640259256
  13    -0.00041516592246306
  14    2.3684450085625e-05
  15    1.7079690471322e-05
  16    -2.4915889305007e-05
  17    8.8708977985914e-05
  18    -0.00025683041663099
  19    0.00059844336972517
  20    -0.00084170921912212
  21    0.00075397372460711
  22    -0.0023326905935852
  23    -0.00044931913931516
  24    0.00037666749027824
  25    -0.0044681141274675
  26    -0.0014377115432001
  27    0.00014939293454208
  28    6.8534291924106e-05
  29    1.402588206116e-05
  30    -0.0004751248972554
  31    -0.00089964103772557
  32    0.0008248291153381
  33    0.00014657989631545
  34    -0.0055025730151839
  35    -0.0013027725829262
  36    0.00010401483097808
  37    5.2569039698112e-05
  38    9.8289317375689e-06
  39    -0.0010912134021048
  40    -0.00025808417471327
  41    -0.0011715455016568
  42    0.00022396880284537
  43    0.0029916088873148
  44    -0.00071292738622957
  45    0.00017458705743829
  46    -5.8797167260947e-06
  47    -8.0063819619511e-06
  48    0.0010230551868884
  49    -0.001403436446768
  50    -0.00049580695390403
  51    -0.0032439147520074
  52    0.0018277770916736
  53    -0.029193486699316
  54     0.021704636390848
  55    0.00013265942913867
  56    -0.00037299313026044
  57    -4.9407036658385e-05
  58    -0.027694850596338
  59     0.038349441976762
  60    0.0051488243020026
  61    -0.0077055516658094
  62    0.0011222125864699
  63     0.000763486087964
  64    -0.00021014727896575
  65    3.7582362170405e-06
  66    8.9206736195308e-05
  67    5.885971234974e-05
  68    -0.00026695941860646
  69    0.0060236406381914
  70    0.0011076321284346
  71    -0.001554445224439
  72    0.0065786735524002
  73    0.0084894338589765
  74     -0.60091929336244
  75    -0.016843966305721
  76     0.069094588901384
  77    0.0050549000591576
  78    0.00023166917079872
  79    0.00026052175220825
  80    7.6956815693725e-05
  81    -0.026223243469482
  82     0.036277341858262
  83    -0.0024194812110431
  84    0.00048576003361214
  85    0.00068640009776696
  86    -0.00088870050099719
  87    -0.0012106805563493
  88    -0.00033212608235111
  89    -3.0617992096667e-05
  90    0.0005232310889626
  91    -0.00082569924449259
  92    -0.003775436684375
  93    -0.0034737685798297
  94     0.001939688708731
  95    -0.011631674444414
  96    -0.0044428804132597
  97    0.00018842522689686
  98    -0.016368044113967
  99    -0.00064771586964963
 100    0.00032015333424914
 101    -0.00031574171333738
 102    -0.00020105389130513
 103    0.0019043559126985
 104    0.0016240219224067
 105    0.0029162242651801
 106    0.00032555446884821
 107    -0.010425516974015
 108    0.00048496471326397
 109    0.00023454114943393
 110    -0.00041966044143098
 111    0.00020087479656351
 112    0.0027006893206743
 113    0.00074516056217117
 114    -0.00084976642075199
 115    0.0010798885204735
 116    -0.0037623911665218
 117    0.00095754911733841
 118    0.00067731353460123
 119    0.00056465264713951
 120    -0.00084880776637029
 121    0.00022058387644399
 122    -0.0023911883984025
 123    0.0020075322837631
 124     -0.81550120244207
 125    -0.023454349795599
 126      0.10350024361319
 127    -0.0050239811562196
 128    -0.00021688240140666
 129    0.00013774884065644
 130    0.0002634633893672
 131    0.0064732665934706
 132     0.010303021192435
 133      0.04285197790219
 134    -0.00080399833599331
 135    -0.0012023719161953
 136    -0.00054381115592655
 137    8.9162644967439e-05
 138    0.0008243278038974
 139    0.00043046109291823
 140    0.0013564071322401
 141    0.00049625602592416
 142    0.0089923382723208
 143    0.0035923701263919
 144    0.0069837478682999
 145    0.0017761752229874
 146    0.0043593173448996
 147    0.0010217936871965
 148    -0.0087379047818158
 149    -0.001116216806393
 150    0.00054266631287111
 151    0.00045126067161307
 152    0.0011901702806776
 153    -0.0022629504613022
 154    -0.0020666080398758
 155    -0.0034114526316615
 156     0.016211128481478
 157    0.0023729631064136
 158    -0.033435649907743
 159     0.028672611308706
 160    -0.00015946717307702
 161    -0.00011580175493037
 162    -0.00030348280234497
 163      0.03456830599023
 164     0.014866486132998
 165     0.039770758021036
 166    0.0081742916695934
 167    0.00046814128750635
 168    1.7499279980191e-05
 169    0.00011749621674473
 170    0.00029096801459583
 171    0.00021203637395675
 172    0.00014557970470789
 173    6.8361908184095e-05
 174    -0.0079154592542111
 175    -0.010167523836136
 176    -0.005728049354725
 177    -0.00068094784243193
 178    -0.003758187277584
 179    0.0012341024539654
 180    0.00062986904374252
 181    0.00079631990177649
 182    -0.00069297655747614
 183    -0.00091735302653438
 184    0.0010059636229342
 185    -1.3673641462237e-05
 186    0.0013861447578031
 187    -0.0024101167353708
 188    0.0012068579199183
 189    -0.0012601199439472
 190    -0.00087066390292187
 191    -0.00055494174211228
 192    0.0015533275950857
 193    0.00019436668956088
 194    0.0019622297815613
 195    -0.0026910305598941
 196    -0.00072960050170896
 197    0.00030532342975032
 198    -0.014845968021971
 199    -1.7842503709176e-05
 200    -0.00035125836147263
 201    -0.00025976043668904
 202    -0.00029602845670336
 203    -0.0021242625823601
 204    0.0026940434178999
 205    6.7217092019028e-05
 206    0.0034179363241448
 207    0.0010945295853906
 208    -0.013947334658959
 209    -0.015232040803336
 210    -0.00030757724018535
 211    2.4125177109033e-05
 212    -6.4336855011163e-05
 213     0.012950912646146
 214    -0.0026933227609945
 215    -0.0038022383106666
 216    0.0049591727828768
 217    -0.0008507373434283
 218    -0.0014495631648928
 219    -6.3761055341977e-05
 220    0.00025409264781608
 221    -6.2481869197961e-05
 222    -2.3216247041158e-06
 223    4.4367204670101e-05
 224    0.0013958555561717
 225    -0.00045188377526305
 226    0.00084405189592891
 227    -0.0025759621053064
 228    0.00089800539946017
 229    0.00042485192780559
 230    -0.011246035098335
 231    0.0006931806916677
 232    -0.00026632355928408
 233    5.9303486944768e-05
 234    -0.00045487815046536
 235    -0.0026933550187118
 236    -0.0010890037374484
 237    0.00060771192252139
 238    0.00018160813762741
 239    -0.0069287342216425
 240    -0.0016911420033152
 241    -0.00019700348280017
 242    3.1887054586456e-05
 243    2.3068580633821e-05
 244    0.00077087273812207
 245    0.00094702407237395
 246    -0.0017528008079855
 247    -2.4272667739694e-05
 248    -0.0074312561452261
 249    -0.0016224786540844
 250    -0.00014061957478268
 251    4.7968095419891e-06
 252    2.4804191637429e-05
 253    0.0013131964153152
 254    -0.0017118926096656
 255    -8.7077449459459e-05
 256    7.932942601267e-05
 257    0.0038593854348336
 258    -0.00054370252599977
 259    -0.00018474314970955
 260    -1.1543396289175e-05
 261    1.6808992573366e-05
 262    -0.0010850156800102
 263    -0.00092010114023003
 264    -0.0014119296754329
 Sym= A
 Ene=               2
 Spin= Alpha
 Occup=    1.00000
   1    -0.0012230517003773
   2    -0.0014279465340831
   3     0.010760629586697
   4    0.0050490731398185
   5    1.2325381212603e-05
   6    0.0011519773260344
   7    0.00020738962196425
   8      0.01397374584192
   9     0.001147834841252
  10    0.00088935941747495
  11    0.0019918324745665
  12    0.0017960208394012
  13    0.00028046566727811
  14    -0.00013125541039752
  15    -6.94589232193e-06
  16    2.7050611315561e-05
  17    3.1059249186618e-05
  18    -9.3958291503227e-06
  19    -0.0019743339809317
  20    0.00058011324855284
  21    -0.00029078873014586
  22    0.0018425596102864
  23    -0.0023284124016162
  24    -0.00089053081610602
  25    0.0085614494378048
  26    0.00089889927808953
  27    -0.00022718087004027
  28    6.3467745440347e-05
  29    7.7633588277076e-05
  30    0.0010060769410768
  31    0.0019780907105425
  32    -0.0018291024624593
  33    -0.00089522480218665
  34    0.0071553626094639
  35    0.0012304506752611
  36    -0.00017354729599016
  37    5.9283911517687e-05
  38    -9.7330802068409e-05
  39    0.00088199873815022