[Molden Format]
made by pyscf v[2.1.1]
[Atoms] (AU)
C   1   6    -7.94938881190020     0.71477643442431    -0.35400806409315
H   2   1    -8.73445852281563    -0.47027516466052     1.14602346337942
H   3   1    -8.56431759810825    -0.07613876631224    -2.16129847695369
H   4   1    -8.78695001229551     2.59296559202629    -0.17246585475843
C   5   6    -5.07120024185187     0.83234517834629    -0.18986569702298
C   6   6    -3.82427787561309    -1.76399905501811    -0.43179467158601
H   7   1    -4.53632724626705     1.71196903665785     1.60204933717027
H   8   1    -4.35037120362318     2.07434764261976    -1.68183168442329
H   9   1    -4.48067745751518    -2.98267058261247     1.11013586352042
C   10   6    -0.93052665503852    -1.73960325766781    -0.46299782935482
H   11   1    -4.48763920855808    -2.65145752886950    -2.18001659216274
C   12   6     0.31639835681683    -0.87865499572749     1.99836251104145
H   13   1    -0.27412707313643    -0.53709436864425    -2.01756609689189
H   14   1    -0.26716740079227    -3.65025167399361    -0.90264185634444
H   15   1    -0.21847274904187     1.07250744795546     2.41986592312568
C   16   6     3.19458654891994    -1.06630895729428     1.92384815330588
H   17   1    -0.40443068141185    -2.02704723080406     3.56352307145192
H   18   1     3.97965625983537     0.10364524183618     0.41201207365100
H   19   1     3.80951344540187    -3.01099927797322     1.59214358179792
H   20   1     4.03214963904138    -0.43716224967022     3.70281516203884
[GTO]
1 0
 s    8 1.00
                  6665  0.00069158396281299
                  1000  0.0053257961529341
                   228   0.027060721042034
                 64.71    0.10165684614077
                 21.06     0.2745748236174
                 7.495    0.44829431892377
                 2.797    0.28490261071525
                0.5215   0.015194859206082
 s    8 1.00
                  6665  -0.00029326965268655
                  1000  -0.0023180354739745
                   228  -0.011499786038565
                 64.71  -0.046826727009787
                 21.06   -0.12846616875047
                 7.495   -0.30126627246289
                 2.797   -0.25563070233011
                0.5215      1.093793361012
 s    1 1.00
                0.1596                   1
 s    1 1.00
                0.0469                   1
 p    3 1.00
                 9.439   0.056979251590039
                 2.002    0.31320721150073
                0.5456    0.76037674173753
 p    1 1.00
                0.1517                   1
 p    1 1.00
               0.04041                   1
 d    1 1.00
                  0.55                   1
 d    1 1.00
                 0.151                   1

2 0
 s    3 1.00
                 13.01   0.033498726389998
                 1.962    0.23480080117413
                0.4446     0.8136829578829
 s    1 1.00
                 0.122                   1
 s    1 1.00
               0.02974                   1
 p    1 1.00
                 0.727                   1
 p    1 1.00
                 0.141                   1

3 0
 s    3 1.00
                 13.01   0.033498726389998
                 1.962    0.23480080117413
                0.4446     0.8136829578829
 s    1 1.00
                 0.122                   1
 s    1 1.00
               0.02974                   1
 p    1 1.00
                 0.727                   1
 p    1 1.00
                 0.141                   1

4 0
 s    3 1.00
                 13.01   0.033498726389998
                 1.962    0.23480080117413
                0.4446     0.8136829578829
 s    1 1.00
                 0.122                   1
 s    1 1.00
               0.02974                   1
 p    1 1.00
                 0.727                   1
 p    1 1.00
                 0.141                   1

5 0
 s    8 1.00
                  6665  0.00069158396281299
                  1000  0.0053257961529341
                   228   0.027060721042034
                 64.71    0.10165684614077
                 21.06     0.2745748236174
                 7.495    0.44829431892377
                 2.797    0.28490261071525
                0.5215   0.015194859206082
 s    8 1.00
                  6665  -0.00029326965268655
                  1000  -0.0023180354739745
                   228  -0.011499786038565
                 64.71  -0.046826727009787
                 21.06   -0.12846616875047
                 7.495   -0.30126627246289
                 2.797   -0.25563070233011
                0.5215      1.093793361012
 s    1 1.00
                0.1596                   1
 s    1 1.00
                0.0469                   1
 p    3 1.00
                 9.439   0.056979251590039
                 2.002    0.31320721150073
                0.5456    0.76037674173753
 p    1 1.00
                0.1517                   1
 p    1 1.00
               0.04041                   1
 d    1 1.00
                  0.55                   1
 d    1 1.00
                 0.151                   1

6 0
 s    8 1.00
                  6665  0.00069158396281299
                  1000  0.0053257961529341
                   228   0.027060721042034
                 64.71    0.10165684614077
                 21.06     0.2745748236174
                 7.495    0.44829431892377
                 2.797    0.28490261071525
                0.5215   0.015194859206082
 s    8 1.00
                  6665  -0.00029326965268655
                  1000  -0.0023180354739745
                   228  -0.011499786038565
                 64.71  -0.046826727009787
                 21.06   -0.12846616875047
                 7.495   -0.30126627246289
                 2.797   -0.25563070233011
                0.5215      1.093793361012
 s    1 1.00
                0.1596                   1
 s    1 1.00
                0.0469                   1
 p    3 1.00
                 9.439   0.056979251590039
                 2.002    0.31320721150073
                0.5456    0.76037674173753
 p    1 1.00
                0.1517                   1
 p    1 1.00
               0.04041                   1
 d    1 1.00
                  0.55                   1
 d    1 1.00
                 0.151                   1

7 0
 s    3 1.00
                 13.01   0.033498726389998
                 1.962    0.23480080117413
                0.4446     0.8136829578829
 s    1 1.00
                 0.122                   1
 s    1 1.00
               0.02974                   1
 p    1 1.00
                 0.727                   1
 p    1 1.00
                 0.141                   1

8 0
 s    3 1.00
                 13.01   0.033498726389998
                 1.962    0.23480080117413
                0.4446     0.8136829578829
 s    1 1.00
                 0.122                   1
 s    1 1.00
               0.02974                   1
 p    1 1.00
                 0.727                   1
 p    1 1.00
                 0.141                   1

9 0
 s    3 1.00
                 13.01   0.033498726389998
                 1.962    0.23480080117413
                0.4446     0.8136829578829
 s    1 1.00
                 0.122                   1
 s    1 1.00
               0.02974                   1
 p    1 1.00
                 0.727                   1
 p    1 1.00
                 0.141                   1

10 0
 s    8 1.00
                  6665  0.00069158396281299
                  1000  0.0053257961529341
                   228   0.027060721042034
                 64.71    0.10165684614077
                 21.06     0.2745748236174
                 7.495    0.44829431892377
                 2.797    0.28490261071525
                0.5215   0.015194859206082
 s    8 1.00
                  6665  -0.00029326965268655
                  1000  -0.0023180354739745
                   228  -0.011499786038565
                 64.71  -0.046826727009787
                 21.06   -0.12846616875047
                 7.495   -0.30126627246289
                 2.797   -0.25563070233011
                0.5215      1.093793361012
 s    1 1.00
                0.1596                   1
 s    1 1.00
                0.0469                   1
 p    3 1.00
                 9.439   0.056979251590039
                 2.002    0.31320721150073
                0.5456    0.76037674173753
 p    1 1.00
                0.1517                   1
 p    1 1.00
               0.04041                   1
 d    1 1.00
                  0.55                   1
 d    1 1.00
                 0.151                   1

11 0
 s    3 1.00
                 13.01   0.033498726389998
                 1.962    0.23480080117413
                0.4446     0.8136829578829
 s    1 1.00
                 0.122                   1
 s    1 1.00
               0.02974                   1
 p    1 1.00
                 0.727                   1
 p    1 1.00
                 0.141                   1

12 0
 s    8 1.00
                  6665  0.00069158396281299
                  1000  0.0053257961529341
                   228   0.027060721042034
                 64.71    0.10165684614077
                 21.06     0.2745748236174
                 7.495    0.44829431892377
                 2.797    0.28490261071525
                0.5215   0.015194859206082
 s    8 1.00
                  6665  -0.00029326965268655
                  1000  -0.0023180354739745
                   228  -0.011499786038565
                 64.71  -0.046826727009787
                 21.06   -0.12846616875047
                 7.495   -0.30126627246289
                 2.797   -0.25563070233011
                0.5215      1.093793361012
 s    1 1.00
                0.1596                   1
 s    1 1.00
                0.0469                   1
 p    3 1.00
                 9.439   0.056979251590039
                 2.002    0.31320721150073
                0.5456    0.76037674173753
 p    1 1.00
                0.1517                   1
 p    1 1.00
               0.04041                   1
 d    1 1.00
                  0.55                   1
 d    1 1.00
                 0.151                   1

13 0
 s    3 1.00
                 13.01   0.033498726389998
                 1.962    0.23480080117413
                0.4446     0.8136829578829
 s    1 1.00
                 0.122                   1
 s    1 1.00
               0.02974                   1
 p    1 1.00
                 0.727                   1
 p    1 1.00
                 0.141                   1

14 0
 s    3 1.00
                 13.01   0.033498726389998
                 1.962    0.23480080117413
                0.4446     0.8136829578829
 s    1 1.00
                 0.122                   1
 s    1 1.00
               0.02974                   1
 p    1 1.00
                 0.727                   1
 p    1 1.00
                 0.141                   1

15 0
 s    3 1.00
                 13.01   0.033498726389998
                 1.962    0.23480080117413
                0.4446     0.8136829578829
 s    1 1.00
                 0.122                   1
 s    1 1.00
               0.02974                   1
 p    1 1.00
                 0.727                   1
 p    1 1.00
                 0.141                   1

16 0
 s    8 1.00
                  6665  0.00069158396281299
                  1000  0.0053257961529341
                   228   0.027060721042034
                 64.71    0.10165684614077
                 21.06     0.2745748236174
                 7.495    0.44829431892377
                 2.797    0.28490261071525
                0.5215   0.015194859206082
 s    8 1.00
                  6665  -0.00029326965268655
                  1000  -0.0023180354739745
                   228  -0.011499786038565
                 64.71  -0.046826727009787
                 21.06   -0.12846616875047
                 7.495   -0.30126627246289
                 2.797   -0.25563070233011
                0.5215      1.093793361012
 s    1 1.00
                0.1596                   1
 s    1 1.00
                0.0469                   1
 p    3 1.00
                 9.439   0.056979251590039
                 2.002    0.31320721150073
                0.5456    0.76037674173753
 p    1 1.00
                0.1517                   1
 p    1 1.00
               0.04041                   1
 d    1 1.00
                  0.55                   1
 d    1 1.00
                 0.151                   1

17 0
 s    3 1.00
                 13.01   0.033498726389998
                 1.962    0.23480080117413
                0.4446     0.8136829578829
 s    1 1.00
                 0.122                   1
 s    1 1.00
               0.02974                   1
 p    1 1.00
                 0.727                   1
 p    1 1.00
                 0.141                   1

18 0
 s    3 1.00
                 13.01   0.033498726389998
                 1.962    0.23480080117413
                0.4446     0.8136829578829
 s    1 1.00
                 0.122                   1
 s    1 1.00
               0.02974                   1
 p    1 1.00
                 0.727                   1
 p    1 1.00
                 0.141                   1

19 0
 s    3 1.00
                 13.01   0.033498726389998
                 1.962    0.23480080117413
                0.4446     0.8136829578829
 s    1 1.00
                 0.122                   1
 s    1 1.00
               0.02974                   1
 p    1 1.00
                 0.727                   1
 p    1 1.00
                 0.141                   1

20 0
 s    3 1.00
                 13.01   0.033498726389998
                 1.962    0.23480080117413
                0.4446     0.8136829578829
 s    1 1.00
                 0.122                   1
 s    1 1.00
               0.02974                   1
 p    1 1.00
                 0.727                   1
 p    1 1.00
                 0.141                   1

[5d]
[7f]
[9g]

[MO]
 Sym= A
 Ene=               0
 Spin= Alpha
 Occup=    1.00000
   1     -0.97984036674509
   2     0.069038650202086
   3      0.12192930097255
   4     0.078343391524701
   5    -0.048425668941009
   6    0.0064962784215201
   7    -0.0018764363036225
   8     0.029656486204642
   9    -0.0046779676600581
  10    0.00036131522668513
  11      0.02576269115384
  12    -0.0050868139197947
  13    0.00020405226467304
  14    -0.00029457465990526
  15    -9.0833694246656e-06
  16    5.6440416047505e-05
  17    -4.1954043798739e-05
  18    -0.00030464146621967
  19     -0.00486626588776
  20    0.00049629316582046
  21    -0.0004272364836784
  22     0.012770807701913
  23    0.0010080275399005
  24     0.057856998445026
  25    -0.0040309114685146
  26    0.0035336066854167
  27     0.001173815038891
  28    0.0051610569004699
  29    -0.0062754877456414
  30    -0.0040849614652553
  31    -0.00083001274156166
  32    -0.00020340733911349
  33      0.05802844635706
  34    -0.002871970062663
  35    0.0021351699474236
  36    0.0004395209730251
  37    0.0035256876091042
  38    0.0074114757467646
  39    -0.0043711229962245
  40    -0.00041060620145326
  41    -0.00019648963750374
  42     0.069188176576574
  43      0.02284377261568
  44     0.011648338006358
  45    0.0018471599140885
  46    -0.0082966064033372
  47    -0.00090954863062801
  48    -0.00065158956152171
  49    -0.0049344626859293
  50    -0.00068129722479959
  51    -0.0036811631669617
  52    -0.0069811945409225
  53    -0.033990827885174
  54    -0.0050660406439165
  55    -0.001107610566556
  56    -0.0010637264983656
  57    -0.00024538156041663
  58      0.03770911526244
  59     0.011449661636686
  60     0.004245026738249
  61     0.022913372657033
  62    -0.0061144934452156
  63    0.0043877517524153
  64    -0.0020013127932183
  65    0.0003790268377045
  66    1.8794280106009e-05
  67    0.0033028184670491
  68    -0.00027529415733115
  69    0.0053748733863255
  70    -0.0019907941907346
  71    0.00011430940243595
  72    -0.0049394009623992
  73    -0.00016895948056368
  74    -0.00030320613056628
  75    -0.0014260020911642
  76    0.0051491669163456
  77    0.0079739813087152
  78    0.0031941888620952
  79    0.0012587001243544
  80    0.00042353167878693
  81    0.00073793734383014
  82    0.0017681517021493
  83    0.00026193740364163
  84     0.020996050500042
  85    -0.010158065985094
  86    -0.0023888217269183
  87    -7.1598944646015e-06
  88    -3.7655535756766e-05
  89    -4.8218520482965e-05
  90    4.469864185465e-05
  91    -8.4276068274906e-05
  92    0.0023670595158001
  93    -0.00056988190845833
  94    0.0003584397462222
  95    -1.5074897943964e-05
  96     0.002256055828371
  97    -0.0034053267815026
  98    -0.026868500837363
  99    -0.014891365142381
 100    0.00011287018173111
 101    -3.6680948221387e-05
 102    0.00019701275430534
 103    0.0045425029134871
 104    0.0034871235581254
 105    0.0057231932957686
 106    -0.003302102809703
 107    -0.023393207364735
 108    -0.005273971585587
 109    4.3206639029696e-05
 110    -1.8547206157931e-05
 111    -0.00016041085598578
 112    0.0038171492797721
 113    0.0042708423236677
 114    -0.0035048992249483
 115    -0.0016555476784376
 116    -0.0036243926304968
 117    -0.0017289734981454
 118    -0.00019216424230927
 119    -1.7257137691526e-05
 120    7.7313890265424e-05
 121    0.00051791920042071
 122    -0.0010646730799298
 123    9.3460836518186e-05
 124    -4.5901463496784e-05
 125    0.00078546616879677
 126    -0.0031919219052369
 127    -0.047584323924702
 128    -0.0013941240085757
 129    -2.7881097508153e-05
 130    -9.4784399793545e-05
 131    0.0007717294059781
 132    0.0022854077390198
 133    0.0025478952949161
 134     0.013355886950198
 135    0.00086442565941833
 136    -0.0014506353767775
 137    -0.00010586058700901
 138    -1.9788510323465e-05
 139    9.6196850506235e-05
 140    -1.4149742404958e-05
 141    -0.0004053484560369
 142    -1.3233964272585e-05
 143    0.00024723365366801
 144    -0.00027935958503038
 145    -0.00035241544194912
 146    0.0030258579362301
 147    -0.0018790112007658
 148     -0.00473311675279
 149    -0.0028172695807464
 150    -0.00025136323881484
 151    3.9732653135754e-05
 152    -7.7979949298198e-05
 153    -0.00048311159663637
 154    -0.00054167808060153
 155    -0.00022746419506093
 156    0.0002178802722727
 157    0.00021185089821048
 158    -0.0052072289103929
 159    0.0098315508039357
 160    0.00030192418022694
 161    0.00012632356188809
 162    0.00043425214061524
 163    -0.00090595299188743
 164    -0.0019117933492523
 165    0.0027372913484977
 166    0.0059307299461187
 167    -0.0053272253967572
 168    3.099060413999e-05
 169    -6.2091158711342e-05
 170    -4.5064018512418e-05
 171    7.6337311208697e-06
 172    4.8813634169206e-05
 173    6.7395305642319e-05
 174    -0.00027509718229204
 175    0.00097662943500694
 176    -8.1391883923878e-05
 177    3.7708377554123e-05
 178    -0.0014443971166084
 179    -0.00028221018907391
 180    0.00020095191256884
 181    0.00065193167740616
 182    -0.00019877479414576
 183    -0.00011568527687833
 184    2.3450404085875e-06
 185    -0.00043438471039863
 186    0.00017987987453726
 187    -0.00064400673721598
 188    0.00026236353491311
 189     0.012188521999673
 190    -0.0026009771937412
 191    -3.2665415352719e-06
 192    -2.5952759574354e-05
 193    -3.5697600020206e-05
 194    -0.0003968967561676
 195    0.0034305843470831
 196    0.00038402782622011
 197    0.00025514903665189
 198     0.004518795941442
 199     0.011573378136684
 200    1.5579339304689e-05
 201    -3.6372251375216e-05
 202    -2.3549743254917e-05
 203    0.0012939985521884
 204    -0.0012019946925032
 205    -0.00076954541999149
 206    1.4045429110299e-05
 207    0.00018223379483492
 208    -0.00020806147061839
 209     -0.01790512141637
 210    -0.00032428697551546
 211    -5.569305309564e-06
 212    -0.00014329122428442
 213    -0.0015801476164283
 214    0.0012087738803576
 215    -0.00066913964277848
 216     0.006467054578865
 217    0.00088311143762884
 218    0.00073479980234413
 219    -4.5955298696689e-05
 220    1.4102768839891e-05
 221    -1.0178562396892e-06
 222    2.1951792026525e-05
 223    -5.2253155683832e-05
 224    -5.1746972778802e-05
 225    0.00043717853030162
 226    -5.6184664053737e-05
 227    0.00022458795083493
 228    -0.00031885966910137
 229    0.00012811954316666
 230    -0.0007028798937505
 231    1.3213972859527e-05
 232    -2.9722385807232e-05
 233    -1.3170327866796e-05
 234    1.3817568013836e-05
 235    -0.00077368047822742
 236    -0.00019102184085647
 237    0.00041505538096756
 238    3.0479560983593e-05
 239    0.0025132278425555
 240    -0.0031999500299947
 241    -2.6964500824307e-05
 242    -4.6139780039484e-05
 243    4.0895922207464e-05
 244    -0.00021649442645505
 245    -0.00014802739155683
 246    0.00017057578597967
 247    3.7778728255115e-05
 248    0.0024922050332507
 249    -0.00053913457663576
 250    2.2717119646345e-06
 251    1.3640885591299e-05
 252    -7.4525802948711e-06
 253    -0.00024034347588146
 254    0.00040267694165618
 255    2.3345999421592e-05
 256    -0.00017233298736292
 257    0.00094973316639175
 258    -0.0028818585080218
 259    -1.1027034056861e-06
 260    -7.1260830958299e-06
 261    -7.2918959320215e-06
 262    -4.2243679959044e-05
 263    -2.5288345343896e-05
 264    3.9504883062103e-05
 Sym= A
 Ene=               1
 Spin= Alpha
 Occup=    1.00000
   1    -0.0078654670999751
   2    -0.0088176345053154
   3    7.9791802494138e-05
   4     -0.09101907179238
   5     0.032208284402726
   6     0.035652776231132
   7     -0.44913621854656
   8    0.0056038100735131
   9    0.0024189404930935
  10     0.053161470449996
  11    -0.022606703332284
  12    -0.0010665739354595
  13     0.016391033144958
  14     0.004953455869549
  15     0.012142678854974
  16     0.016320302350388
  17    0.0020149214137397
  18    -0.0015814727304463
  19    -0.022973252166117
  20    -0.0026244475029445
  21      -0.0888313159769
  22    -0.012807228300488
  23    0.0047625096551486
  24     -0.33561459458806
  25     -0.39819140073932
  26    -0.029009614073168
  27    -0.0085497594557829
  28    -0.010676900613434
  29    -0.00032532458086984
  30    -0.037068012122238
  31     -0.03078955832703
  32     0.054836240952497
  33      0.33787529078948
  34      0.43258805632688
  35     0.023883904460063
  36     0.009002742402668
  37     0.008939525076484
  38    0.0025937323262146
  39     0.032670459683114
  40     0.020464814273674
  41     0.068945039959007
  42    -0.022605087013363
  43    -0.025247682739186
  44    -0.0088197962934156
  45    0.00036534824371957
  46    0.0026758312211917
  47    -0.014756998808235
  48     -0.00546045144393
  49     0.002063052941697
  50     0.018287356155957
  51    0.00085895023220147
  52    0.0023201088714558
  53    -0.0049535157904023
  54     0.011059871990654
  55    -0.0029516483957757
  56    0.00042943333321515
  57    -0.0002636376061284
  58     0.014252523024102
  59    0.0067225577698545
  60     -0.13190704778643
  61    -0.057264691463526
  62     0.020886033568619
  63    -0.012046110336275
  64    0.0026856128798095
  65     0.019782227219503
  66     0.002846591370473
  67    -0.00091333971843522
  68    -0.0019719241344968
  69    0.0044889540562126
  70     0.047025871619164
  71    0.0082448324104577
  72    -0.0044910282917021
  73    -0.0027319090582359
  74    0.0012035607316873
  75    0.00094234240405251
  76    -0.066906643467314
  77     0.061157508229186
  78    0.0013843595795805
  79    -0.0023540548692379
  80     0.014986575362132
  81    -0.050723002676209
  82    -0.020039533349325
  83     0.052218541321711
  84    -0.016694005935941
  85     0.019070720152839
  86    0.0036377729218521
  87    0.00015687468025581
  88    -0.00032543464889208
  89    0.00085547322182993
  90    7.2574400522746e-05
  91    -0.00014150541412189
  92     0.011572028361894
  93     0.022688433171193
  94    0.0031181607507201
  95    -0.0097998979248671
  96    -0.0014465780222897
  97     0.033178676654192
  98      0.18751141969461
  99    -0.014649478388269
 100    -0.0019375102963767
 101    -0.00038317332877044
 102    0.00040434488267026
 103    -0.043557215290097
 104    -0.029099775762513
 105    -0.044734946568682
 106    -0.032002353881031
 107     -0.17886681518745
 108    0.0045843933109359
 109    0.0015146812272838
 110    0.00031998204262182
 111    0.00068786865053468
 112     0.040453663184142
 113     0.035800014323945
 114    -0.032395638710234
 115    0.0036971258428012
 116    -0.042926447553503
 117    0.0068878463128606
 118    0.00011849537412514
 119    0.00044163430755855
 120    -0.00047365119998916
 121    -0.0087118891945122
 122    -0.0087833527002877
 123     0.010736186212151
 124    4.7757871469898e-06
 125    0.0016915122165939
 126    -0.031309286085901
 127    -0.071307692991586
 128    7.4416967014459e-05
 129    0.0024695568132582
 130    -0.0043909304485457
 131    -0.079479987677537
 132    -0.016057812387998
 133    -0.044838877237855
 134    -0.015722407744165
 135    -0.015617934192526
 136    -0.020981071047312
 137    0.00015711214749001
 138    -0.0019371936829651
 139    0.00012454764804423
 140    8.7664496427717e-05
 141    0.00037774623274358
 142    -0.029032969216958
 143     0.015400370566176
 144    -0.012001876555312
 145     0.022746076149774
 146    -0.014138513027832
 147    -0.0034120743263945
 148    -0.0051359874710847
 149    -0.0070598848446275
 150    0.00013821155817594
 151    -0.00011770917247488
 152    -0.0001139381926441
 153    0.0063699118151901
 154    -9.4840077970795e-05
 155    0.0041438795245059
 156    -0.00012927491820687
 157    -0.0047506118433446
 158     0.069831067039254
 159      0.13508817628037
 160     0.004135683725727
 161    -0.0022603340763115
 162    0.0022677896761802
 163    -0.077021415152064
 164    0.0070211429291222
 165     -0.02560979678078
 166    -0.0081872708578511
 167    0.0053031657218241
 168     -0.02757063323645
 169    -0.00020769993207693
 170    0.00065959745533055
 171    -3.8789261574213e-05
 172    0.0014521767243309
 173    -0.00067809368789133
 174     0.019461871625205
 175    -0.00045293127117237
 176    0.00037672997761496
 177    -0.025728572594169
 178     0.018026844520544
 179    0.0051712963182167
 180     0.063429525897278
 181    -0.0051357248367635
 182    0.0012189993138989
 183    -0.00048911614478179
 184    0.00029890091004077
 185    -0.0060867366767977
 186    -0.015092501162665
 187     0.012229770694329
 188    -0.0013792009301931
 189    0.00021062358490598
 190    -0.0013128737731918
 191    -3.748233056647e-05
 192    0.00015432412904446
 193    -0.00052011575338973
 194    -0.0054034150477114
 195    0.00080298452254905
 196    -0.0055040886553447
 197    -0.0029996866794341
 198    -0.059565584576201
 199     0.016039081213414
 200    -0.0003743523741247
 201    9.7845663790786e-06
 202    5.0474432282742e-05
 203    -0.020781698072334
 204     0.019198845549008
 205    0.0075798124614117
 206    -0.0003289030554002
 207    0.00052409283719296
 208     0.060419293526642
 209    -0.028978870633046
 210    -0.0033937697100451
 211    -4.3421295175432e-08
 212    0.00019269043891203
 213    -0.050462335073416
 214    -0.010421583703171
 215    0.0046508334221693
 216    0.0036731848243134
 217    -0.012240745092979
 218    -0.0044175737866838
 219    0.00039134371398159
 220    0.0001810198243313
 221    2.8017565050609e-05
 222    0.00015754182395258
 223    0.0005555172888662
 224    -0.0087977716047539
 225    -0.014665143478267
 226    -0.00036288974843287
 227    0.0040214775450325
 228    -0.0020794401093162
 229    -0.00056874366948025
 230    -0.046235229897887
 231    0.0075951884073306
 232    0.00017439522737384
 233    0.00017903703258658
 234    -9.5961816569476e-05
 235    -0.0027820837697796
 236    -0.0061747308849216
 237    0.0095764143943092
 238    0.0001533374967771
 239    0.0031593914776128
 240    0.0037086067191601
 241    -0.0002162982094938
 242    -2.6734539011509e-06
 243    -0.00025314637174869
 244    -0.0011587956610961
 245    -0.00044274026853749
 246    -0.00028080296533321
 247    -0.0010339030617586
 248     -0.01513876401467
 249    -0.0096573469638297
 250    -0.00025293778318052
 251    0.00012497892933783
 252    -0.00014642437042369
 253    0.0013519599040919
 254    -0.0034550973910004
 255    1.7181664005412e-05
 256    -0.00049576465517103
 257     0.038377337987203
 258    0.0065944955033353
 259    0.0004238577879987
 260    4.8414684860559e-05
 261    0.00029336401465973
 262    0.00083705262882451
 263    -0.0041230543596045
 264    -0.0099280709989847
 Sym= A
 Ene=               2
 Spin= Alpha
 Occup=    1.00000
   1    -0.077825495470217
   2    -0.071807450488254
   3     0.003047391664791
   4    -0.062898624990992
   5     0.081268326010661
   6     -0.43493906455899
   7    -0.026709901715375
   8     0.054644505260382
   9      0.10463799070655
  10     0.022676165817054
  11    -0.023895490842987
  12      0.04723020742682
  13     0.012879501423301
  14        0.012928479372
  15    0.00064101626583177
  16    -0.0036511819538559
  17    0.0081457210991075
  18     0.014733936959324
  19    -0.083702044323719
  20    0.0061214461590271
  21     0.027123354339992
  22    -0.040596824272437
  23    -0.00024967829160946
  24      0.15173933409769
  25      0.27737468435339
  26     0.017524270661798
  27    0.0060212189951184
  28    -0.010534079686665
  29    -0.0058237945346107
  30     0.032050834520927
  31      0.03948662711361
  32     -0.02153701863617
  33      0.12073332186352
  34      0.25846791185792
  35     0.026278895182334
  36    0.0046857759527394
  37    -0.012433111310054
  38    0.0034073124901978
  39     0.028474408502087
  40     0.032123909365638
  41     0.033135061404984
  42     -0.43126358340236
  43     -0.48973424236409