[Molden Format]
made by pyscf v[2.0.1]
[Atoms] (AU)
C   1   6    -7.83695275310515     0.82970636478595    -0.34118683925581
H   2   1    -9.24508330866048     2.30582076253557    -0.18705283968656
C   3   6    -5.02637801687592     0.90774090434635    -0.18604372593604
C   4   6    -3.83010163358378    -1.72178143955965    -0.41440975815784
H   5   1    -4.47216046187177     1.79236422209306     1.60309889105986
H   6   1    -4.28361360471112     2.12864344260337    -1.69176238418049
H   7   1    -4.50645351082686    -2.90968369050340     1.13876332458145
C   8   6    -0.93727467805673    -1.73157570109066    -0.45323096885262
H   9   1    -4.51783249668593    -2.60140491992599    -2.15339715408166
C   10   6     0.32945919892676    -0.87419089570343     1.99928904376032
H   11   1    -0.26853499558862    -0.55014614006878    -2.01851001509111
H   12   1    -0.30572480572006    -3.65479476456968    -0.88243595975752
H   13   1    -0.17189364568791     1.08839286370378     2.41040841079007
C   14   6     3.20407051742129    -1.10759682749945     1.91695235370473
H   15   1    -0.40503633863478    -2.00081216301672     3.57357830416073
H   16   1     4.00271280828119     0.03984600917213     0.39507124586211
H   17   1     3.78671767916124    -3.06395734083325     1.59653889579104
H   18   1     4.05632150384591    -0.48004580461498     3.68930985634441
[GTO]
1 0
 s    3 1.00
             71.616837    0.15432897000916
             13.045096    0.53532814003178
             3.5305122     0.4446345400264
 s    3 1.00
             2.9412494  -0.099967230075964
             0.6834831    0.39951283030359
             0.2222899    0.70011547053201
 p    3 1.00
             2.9412494    0.15591627210511
             0.6834831    0.60768372820466
             0.2222899    0.39195739529202

2 0
 s    3 1.00
            3.42525091    0.15432897070298
            0.62391373    0.53532814243847
             0.1688554    0.44463454202535

3 0
 s    3 1.00
             71.616837    0.15432897000916
             13.045096    0.53532814003178
             3.5305122     0.4446345400264
 s    3 1.00
             2.9412494  -0.099967230075964
             0.6834831    0.39951283030359
             0.2222899    0.70011547053201
 p    3 1.00
             2.9412494    0.15591627210511
             0.6834831    0.60768372820466
             0.2222899    0.39195739529202

4 0
 s    3 1.00
             71.616837    0.15432897000916
             13.045096    0.53532814003178
             3.5305122     0.4446345400264
 s    3 1.00
             2.9412494  -0.099967230075964
             0.6834831    0.39951283030359
             0.2222899    0.70011547053201
 p    3 1.00
             2.9412494    0.15591627210511
             0.6834831    0.60768372820466
             0.2222899    0.39195739529202

5 0
 s    3 1.00
            3.42525091    0.15432897070298
            0.62391373    0.53532814243847
             0.1688554    0.44463454202535

6 0
 s    3 1.00
            3.42525091    0.15432897070298
            0.62391373    0.53532814243847
             0.1688554    0.44463454202535

7 0
 s    3 1.00
            3.42525091    0.15432897070298
            0.62391373    0.53532814243847
             0.1688554    0.44463454202535

8 0
 s    3 1.00
             71.616837    0.15432897000916
             13.045096    0.53532814003178
             3.5305122     0.4446345400264
 s    3 1.00
             2.9412494  -0.099967230075964
             0.6834831    0.39951283030359
             0.2222899    0.70011547053201
 p    3 1.00
             2.9412494    0.15591627210511
             0.6834831    0.60768372820466
             0.2222899    0.39195739529202

9 0
 s    3 1.00
            3.42525091    0.15432897070298
            0.62391373    0.53532814243847
             0.1688554    0.44463454202535

10 0
 s    3 1.00
             71.616837    0.15432897000916
             13.045096    0.53532814003178
             3.5305122     0.4446345400264
 s    3 1.00
             2.9412494  -0.099967230075964
             0.6834831    0.39951283030359
             0.2222899    0.70011547053201
 p    3 1.00
             2.9412494    0.15591627210511
             0.6834831    0.60768372820466
             0.2222899    0.39195739529202

11 0
 s    3 1.00
            3.42525091    0.15432897070298
            0.62391373    0.53532814243847
             0.1688554    0.44463454202535

12 0
 s    3 1.00
            3.42525091    0.15432897070298
            0.62391373    0.53532814243847
             0.1688554    0.44463454202535

13 0
 s    3 1.00
            3.42525091    0.15432897070298
            0.62391373    0.53532814243847
             0.1688554    0.44463454202535

14 0
 s    3 1.00
             71.616837    0.15432897000916
             13.045096    0.53532814003178
             3.5305122     0.4446345400264
 s    3 1.00
             2.9412494  -0.099967230075964
             0.6834831    0.39951283030359
             0.2222899    0.70011547053201
 p    3 1.00
             2.9412494    0.15591627210511
             0.6834831    0.60768372820466
             0.2222899    0.39195739529202

15 0
 s    3 1.00
            3.42525091    0.15432897070298
            0.62391373    0.53532814243847
             0.1688554    0.44463454202535

16 0
 s    3 1.00
            3.42525091    0.15432897070298
            0.62391373    0.53532814243847
             0.1688554    0.44463454202535

17 0
 s    3 1.00
            3.42525091    0.15432897070298
            0.62391373    0.53532814243847
             0.1688554    0.44463454202535

18 0
 s    3 1.00
            3.42525091    0.15432897070298
            0.62391373    0.53532814243847
             0.1688554    0.44463454202535

[5d]
[7f]
[9g]

[MO]
 Sym= A
 Ene=               0
 Spin= Alpha
 Occup=    1.00000
   1      0.99304270762929
   2     0.030051380000688
   3    0.0017019865081671
   4    0.0040563723624301
   5    0.00070908747737763
   6    -0.0066690003366277
   7    0.00017305442681122
   8    -0.0047021063989457
   9    0.0045365325585907
  10    -0.00014409902959631
  11    0.00020983892296486
  12    -0.00016891865680551
  13    0.00075730769556394
  14    0.00045547289008864
  15    0.00038086496062012
  16    4.690595534634e-05
  17    0.00013063686902081
  18    0.00013297253118238
  19    -0.00026276949306412
  20    -4.598997765296e-05
  21    1.436636429603e-05
  22    -0.00027729738585798
  23    7.1530216000975e-05
  24    1.888452134136e-05
  25    -0.00036137685036727
  26    8.2223644315809e-06
  27    -3.7320550601509e-05
  28    4.0681632444376e-05
  29    2.9846381355106e-05
  30    1.6496737804986e-05
  31    -4.2906956499741e-05
  32    -0.00012289875956783
  33    -1.0540643450025e-05
  34    -9.9685879428639e-06
  35    4.2685521227093e-05
  36    -4.3528785486688e-05
  37    -1.2871537788642e-05
  38    -7.2382868933308e-06
  39    -3.6311962796918e-05
  40    -4.7718562290312e-06
  41    1.7935475327407e-05
  42    -2.6365452540642e-05
 Sym= A
 Ene=               1
 Spin= Alpha
 Occup=    1.00000
   1      0.21105669593012
   2     -0.62310237424472
   3    -0.093629209778434
   4     -0.15056256190735
   5    -0.027753404746431
   6     -0.27905959971293
   7     0.057795257027872
   8     -0.17728890679618
   9      0.30463958049025
  10     0.012579837972058
  11      0.01783659540167
  12    -0.0046223695398863
  13       0.0195957827536
  14    -0.032154313527242
  15     0.012781957898188
  16    -0.00068895050471832
  17     0.051693331441073
  18      0.05011965702165
  19     0.016711290178174
  20    0.0073184738315546
  21    -0.029756843014973
  22     0.037176591592484
  23    -0.0066589447083956
  24    -0.00069007979601251
  25     0.021772306711151
  26    0.00075742260086174
  27    -0.0027184427237785
  28    0.00065344785507897
  29    -0.0061138226503768
  30    -0.0019898034136881
  31    -0.00075564142910935
  32     0.013956038759626
  33    0.00056938814172916
  34    0.00044213916825043
  35    -0.0020600954526105
  36    0.0015132006348771
  37    0.00068880592982024
  38    0.00023974416248767
  39    0.0023503007521962
  40    0.00021122311391677
  41    -0.0017456947471627
  42    0.0021665151610224
 Sym= A
 Ene=               2
 Spin= Alpha
 Occup=    1.00000
   1    -0.012201408877728
   2     0.031964849250105
   3     -0.47488434597203
   4      0.21085409883432
   5    0.0080870314346122
   6       0.4492790526493
   7     0.068969962296107
   8     -0.26637636851982
   9       0.3533578393137
  10      0.03266829785395
  11     0.022989666892895
  12    -0.0047209409361893
  13     0.033261818047441
  14    -0.018721745729747
  15     0.021526817388056
  16    0.00096851578435392
  17     0.037478133842593
  18      0.03739614856793
  19     0.019233331807347
  20    0.0072889205214446
  21    -0.033376740967021
  22     0.035897296073916
  23    -0.0022140707512723
  24    -0.00043063899023757
  25     0.023836096165532
  26    0.00099798765722945
  27    -0.003928553506617
  28    0.0017075125584272
  29    -0.0060493914766377
  30    -0.0013136036088844
  31    -0.0018161328569137
  32     0.013773437667889
  33    0.0013378662131377
  34    0.00033193340274378
  35    -0.0016764822189063
  36    0.00081313877356127
  37    0.00044717861769825
  38    -6.5027260795562e-05
  39    0.0024139169068813
  40    0.00019540812845799
  41    -0.0015801546036068
  42    0.0019159731214205
 Sym= A
 Ene=               3
 Spin= Alpha
 Occup=    1.00000
   1     -0.12750256831434
   2      0.57750953751187
   3     -0.31793903682054
   4     -0.75551388521856
   5     -0.12810571867694
   6     -0.20544923692285
   7     0.026260055474836
   8     -0.11529939663471
   9      0.16306582848826
  10     0.053111402555575
  11     0.017384191367939
  12     0.017936192656244
  13    -0.074791790301967
  14      0.04516853134937
  15    -0.070020132366464
  16    -0.003456899266363
  17      0.08979160516356
  18     0.081045841168906
  19     0.010516865523749
  20    -0.0014579745148395
  21    0.0057095986441623
  22    -0.017069176085937
  23    0.0022039455325456
  24    0.0028488933465596
  25     0.011139549163769
  26    0.0011782413634005
  27    -0.0049243938449059
  28    0.0031850783527093
  29    -0.0062586439880845
  30    -0.001625003560155
  31    0.0018251391510909
  32    -0.0093691230088232
  33    -0.0023637608700397
  34    -0.00086998716230334
  35    0.0038527361409496
  36    -0.0046680952122668
  37    0.00022265011684257
  38    -5.0509146502912e-05
  39    -0.00023977777320441
  40    0.00018793393393912
  41    -0.0015235776437821
  42    -0.00085344761741194
 Sym= A
 Ene=               4
 Spin= Alpha
 Occup=    1.00000
   1    0.00046442353828261
   2    -0.0021628264920263
   3    -0.048982693312978
   4     -0.14784991909404
   5      0.98735329161724
   6    0.00093248606680226
   7    -5.5481437069476e-05
   8    1.2503263874644e-05
   9    0.0020390688313016
  10    0.0063917873594224
  11    -0.050466095914649
  12    0.0011748582763585
  13    -0.0051008704305895
  14    0.0020599754929151
  15    -0.0045266003285623
  16    -0.020424906844423
  17     -0.14671808855219
  18      0.15533995922269
  19     0.007416475888911
  20    0.00031487264150394
  21    -0.0013776140608144
  22    -0.0029361157673239
  23    -0.0028114699373868
  24    0.0059279698878955
  25    -0.0075348293441926
  26    -0.0018236985028571
  27    0.0077274997340502
  28    -0.0035438882205572
  29    0.0049409060686122
  30    -0.0016905799318045
  31    -0.0045004087837968
  32    0.00078311411320419
  33    0.0016911018505858
  34    0.00056156240415213
  35    -0.0026145794307977
  36    0.0037899157760563
  37    -0.0003030441225866
  38    -0.00020872233503286
  39    -0.0011580114727151
  40    -0.00024738066740402
  41    0.0015629925411937
  42    0.00024774142450971
