[Molden Format]
made by pyscf v[2.0.1]
[Atoms] (AU)
C   1   6    -7.94938881190020     0.71477643442431    -0.35400806409315
H   2   1    -8.73445852281563    -0.47027516466052     1.14602346337942
H   3   1    -8.56431759810825    -0.07613876631224    -2.16129847695369
H   4   1    -8.78695001229551     2.59296559202629    -0.17246585475843
C   5   6    -5.07120024185187     0.83234517834629    -0.18986569702298
C   6   6    -3.82427787561309    -1.76399905501811    -0.43179467158601
H   7   1    -4.53632724626705     1.71196903665785     1.60204933717027
H   8   1    -4.35037120362318     2.07434764261976    -1.68183168442329
H   9   1    -4.48067745751518    -2.98267058261247     1.11013586352042
C   10   6    -0.93052665503852    -1.73960325766781    -0.46299782935482
H   11   1    -4.48763920855808    -2.65145752886950    -2.18001659216274
C   12   6     0.31639835681683    -0.87865499572749     1.99836251104145
H   13   1    -0.27412707313643    -0.53709436864425    -2.01756609689189
H   14   1    -0.26716740079227    -3.65025167399361    -0.90264185634444
H   15   1    -0.21847274904187     1.07250744795546     2.41986592312568
C   16   6     3.19458654891994    -1.06630895729428     1.92384815330588
H   17   1    -0.40443068141185    -2.02704723080406     3.56352307145192
H   18   1     3.97965625983537     0.10364524183618     0.41201207365100
H   19   1     3.80951344540187    -3.01099927797322     1.59214358179792
H   20   1     4.03214963904138    -0.43716224967022     3.70281516203884
[GTO]
1 0
 s    3 1.00
             71.616837    0.15432897000916
             13.045096    0.53532814003178
             3.5305122     0.4446345400264
 s    3 1.00
             2.9412494  -0.099967230075964
             0.6834831    0.39951283030359
             0.2222899    0.70011547053201
 p    3 1.00
             2.9412494    0.15591627210511
             0.6834831    0.60768372820466
             0.2222899    0.39195739529202

2 0
 s    3 1.00
            3.42525091    0.15432897070298
            0.62391373    0.53532814243847
             0.1688554    0.44463454202535

3 0
 s    3 1.00
            3.42525091    0.15432897070298
            0.62391373    0.53532814243847
             0.1688554    0.44463454202535

4 0
 s    3 1.00
            3.42525091    0.15432897070298
            0.62391373    0.53532814243847
             0.1688554    0.44463454202535

5 0
 s    3 1.00
             71.616837    0.15432897000916
             13.045096    0.53532814003178
             3.5305122     0.4446345400264
 s    3 1.00
             2.9412494  -0.099967230075964
             0.6834831    0.39951283030359
             0.2222899    0.70011547053201
 p    3 1.00
             2.9412494    0.15591627210511
             0.6834831    0.60768372820466
             0.2222899    0.39195739529202

6 0
 s    3 1.00
             71.616837    0.15432897000916
             13.045096    0.53532814003178
             3.5305122     0.4446345400264
 s    3 1.00
             2.9412494  -0.099967230075964
             0.6834831    0.39951283030359
             0.2222899    0.70011547053201
 p    3 1.00
             2.9412494    0.15591627210511
             0.6834831    0.60768372820466
             0.2222899    0.39195739529202

7 0
 s    3 1.00
            3.42525091    0.15432897070298
            0.62391373    0.53532814243847
             0.1688554    0.44463454202535

8 0
 s    3 1.00
            3.42525091    0.15432897070298
            0.62391373    0.53532814243847
             0.1688554    0.44463454202535

9 0
 s    3 1.00
            3.42525091    0.15432897070298
            0.62391373    0.53532814243847
             0.1688554    0.44463454202535

10 0
 s    3 1.00
             71.616837    0.15432897000916
             13.045096    0.53532814003178
             3.5305122     0.4446345400264
 s    3 1.00
             2.9412494  -0.099967230075964
             0.6834831    0.39951283030359
             0.2222899    0.70011547053201
 p    3 1.00
             2.9412494    0.15591627210511
             0.6834831    0.60768372820466
             0.2222899    0.39195739529202

11 0
 s    3 1.00
            3.42525091    0.15432897070298
            0.62391373    0.53532814243847
             0.1688554    0.44463454202535

12 0
 s    3 1.00
             71.616837    0.15432897000916
             13.045096    0.53532814003178
             3.5305122     0.4446345400264
 s    3 1.00
             2.9412494  -0.099967230075964
             0.6834831    0.39951283030359
             0.2222899    0.70011547053201
 p    3 1.00
             2.9412494    0.15591627210511
             0.6834831    0.60768372820466
             0.2222899    0.39195739529202

13 0
 s    3 1.00
            3.42525091    0.15432897070298
            0.62391373    0.53532814243847
             0.1688554    0.44463454202535

14 0
 s    3 1.00
            3.42525091    0.15432897070298
            0.62391373    0.53532814243847
             0.1688554    0.44463454202535

15 0
 s    3 1.00
            3.42525091    0.15432897070298
            0.62391373    0.53532814243847
             0.1688554    0.44463454202535

16 0
 s    3 1.00
             71.616837    0.15432897000916
             13.045096    0.53532814003178
             3.5305122     0.4446345400264
 s    3 1.00
             2.9412494  -0.099967230075964
             0.6834831    0.39951283030359
             0.2222899    0.70011547053201
 p    3 1.00
             2.9412494    0.15591627210511
             0.6834831    0.60768372820466
             0.2222899    0.39195739529202

17 0
 s    3 1.00
            3.42525091    0.15432897070298
            0.62391373    0.53532814243847
             0.1688554    0.44463454202535

18 0
 s    3 1.00
            3.42525091    0.15432897070298
            0.62391373    0.53532814243847
             0.1688554    0.44463454202535

19 0
 s    3 1.00
            3.42525091    0.15432897070298
            0.62391373    0.53532814243847
             0.1688554    0.44463454202535

20 0
 s    3 1.00
            3.42525091    0.15432897070298
            0.62391373    0.53532814243847
             0.1688554    0.44463454202535

[6d]
[10f]
[15g]

[MO]
 Sym= A
 Ene=               0
 Spin= Alpha
 Occup=    1.00000
   1     0.022035916895565
   2    -0.086942408754336
   3     -0.26561487454985
   4     0.092132308888827
   5    -0.0049697645861798
   6    0.00094983052353977
   7     0.013254837913154
   8       0.1710391219042
   9    -0.002775691363879
  10    0.0065482231217856
  11      0.26265811764165
  12     -0.11762803240299
  13     0.030557296579761
  14    0.0097527824506833
  15    -0.041451068234551
  16      -0.3954192366254
  17     0.090531936170121
  18    -0.099928421757461
  19     0.070758894710963
  20    0.00070365658085501
  21    -0.025654722156377
  22    0.0097486325402378
  23    -0.041434093715568
  24      0.39542955887062
  25    -0.075061661740631
  26      0.11202873247961
  27      0.17433268594934
  28    -0.0027807762664148
  29     0.006569756987132
  30     -0.26267933487705
  31    0.0012119525166378
  32     -0.12159949186142
  33     -0.02564572212368
  34      0.17423976310685
  35     0.070681801270165
  36     0.022035394716942
  37    -0.086939848891089
  38      0.26562197938456
  39      0.01742592161748
  40     0.090643218677201
  41    0.0007074760846275
  42    0.00094661162034675
  43     0.013215950734138
  44      0.17108500828465
