[Molden Format]
made by pyscf v[2.0.1]
[Atoms] (AU)
C   1   6    -7.94938881190020     0.71477643442431    -0.35400806409315
H   2   1    -8.73445852281563    -0.47027516466052     1.14602346337942
H   3   1    -8.56431759810825    -0.07613876631224    -2.16129847695369
H   4   1    -8.78695001229551     2.59296559202629    -0.17246585475843
C   5   6    -5.07120024185187     0.83234517834629    -0.18986569702298
C   6   6    -3.82427787561309    -1.76399905501811    -0.43179467158601
H   7   1    -4.53632724626705     1.71196903665785     1.60204933717027
H   8   1    -4.35037120362318     2.07434764261976    -1.68183168442329
H   9   1    -4.48067745751518    -2.98267058261247     1.11013586352042
C   10   6    -0.93052665503852    -1.73960325766781    -0.46299782935482
H   11   1    -4.48763920855808    -2.65145752886950    -2.18001659216274
C   12   6     0.31639835681683    -0.87865499572749     1.99836251104145
H   13   1    -0.27412707313643    -0.53709436864425    -2.01756609689189
H   14   1    -0.26716740079227    -3.65025167399361    -0.90264185634444
H   15   1    -0.21847274904187     1.07250744795546     2.41986592312568
C   16   6     3.19458654891994    -1.06630895729428     1.92384815330588
H   17   1    -0.40443068141185    -2.02704723080406     3.56352307145192
H   18   1     3.97965625983537     0.10364524183618     0.41201207365100
H   19   1     3.80951344540187    -3.01099927797322     1.59214358179792
H   20   1     4.03214963904138    -0.43716224967022     3.70281516203884
[GTO]
1 0
 s    3 1.00
             71.616837    0.15432897000916
             13.045096    0.53532814003178
             3.5305122     0.4446345400264
 s    3 1.00
             2.9412494  -0.099967230075964
             0.6834831    0.39951283030359
             0.2222899    0.70011547053201
 p    3 1.00
             2.9412494    0.15591627210511
             0.6834831    0.60768372820466
             0.2222899    0.39195739529202

2 0
 s    3 1.00
            3.42525091    0.15432897070298
            0.62391373    0.53532814243847
             0.1688554    0.44463454202535

3 0
 s    3 1.00
            3.42525091    0.15432897070298
            0.62391373    0.53532814243847
             0.1688554    0.44463454202535

4 0
 s    3 1.00
            3.42525091    0.15432897070298
            0.62391373    0.53532814243847
             0.1688554    0.44463454202535

5 0
 s    3 1.00
             71.616837    0.15432897000916
             13.045096    0.53532814003178
             3.5305122     0.4446345400264
 s    3 1.00
             2.9412494  -0.099967230075964
             0.6834831    0.39951283030359
             0.2222899    0.70011547053201
 p    3 1.00
             2.9412494    0.15591627210511
             0.6834831    0.60768372820466
             0.2222899    0.39195739529202

6 0
 s    3 1.00
             71.616837    0.15432897000916
             13.045096    0.53532814003178
             3.5305122     0.4446345400264
 s    3 1.00
             2.9412494  -0.099967230075964
             0.6834831    0.39951283030359
             0.2222899    0.70011547053201
 p    3 1.00
             2.9412494    0.15591627210511
             0.6834831    0.60768372820466
             0.2222899    0.39195739529202

7 0
 s    3 1.00
            3.42525091    0.15432897070298
            0.62391373    0.53532814243847
             0.1688554    0.44463454202535

8 0
 s    3 1.00
            3.42525091    0.15432897070298
            0.62391373    0.53532814243847
             0.1688554    0.44463454202535

9 0
 s    3 1.00
            3.42525091    0.15432897070298
            0.62391373    0.53532814243847
             0.1688554    0.44463454202535

10 0
 s    3 1.00
             71.616837    0.15432897000916
             13.045096    0.53532814003178
             3.5305122     0.4446345400264
 s    3 1.00
             2.9412494  -0.099967230075964
             0.6834831    0.39951283030359
             0.2222899    0.70011547053201
 p    3 1.00
             2.9412494    0.15591627210511
             0.6834831    0.60768372820466
             0.2222899    0.39195739529202

11 0
 s    3 1.00
            3.42525091    0.15432897070298
            0.62391373    0.53532814243847
             0.1688554    0.44463454202535

12 0
 s    3 1.00
             71.616837    0.15432897000916
             13.045096    0.53532814003178
             3.5305122     0.4446345400264
 s    3 1.00
             2.9412494  -0.099967230075964
             0.6834831    0.39951283030359
             0.2222899    0.70011547053201
 p    3 1.00
             2.9412494    0.15591627210511
             0.6834831    0.60768372820466
             0.2222899    0.39195739529202

13 0
 s    3 1.00
            3.42525091    0.15432897070298
            0.62391373    0.53532814243847
             0.1688554    0.44463454202535

14 0
 s    3 1.00
            3.42525091    0.15432897070298
            0.62391373    0.53532814243847
             0.1688554    0.44463454202535

15 0
 s    3 1.00
            3.42525091    0.15432897070298
            0.62391373    0.53532814243847
             0.1688554    0.44463454202535

16 0
 s    3 1.00
             71.616837    0.15432897000916
             13.045096    0.53532814003178
             3.5305122     0.4446345400264
 s    3 1.00
             2.9412494  -0.099967230075964
             0.6834831    0.39951283030359
             0.2222899    0.70011547053201
 p    3 1.00
             2.9412494    0.15591627210511
             0.6834831    0.60768372820466
             0.2222899    0.39195739529202

17 0
 s    3 1.00
            3.42525091    0.15432897070298
            0.62391373    0.53532814243847
             0.1688554    0.44463454202535

18 0
 s    3 1.00
            3.42525091    0.15432897070298
            0.62391373    0.53532814243847
             0.1688554    0.44463454202535

19 0
 s    3 1.00
            3.42525091    0.15432897070298
            0.62391373    0.53532814243847
             0.1688554    0.44463454202535

20 0
 s    3 1.00
            3.42525091    0.15432897070298
            0.62391373    0.53532814243847
             0.1688554    0.44463454202535

[6d]
[10f]
[15g]

[MO]
 Sym= A
 Ene=               0
 Spin= Alpha
 Occup=    1.00000
   1    -0.015680155441102
   2    -0.004688801326264
   3    -0.0030163571032703
   4    -0.00013755143122708
   5    -0.00016802806779709
   6    0.0001355084861937
   7    0.00013808621726187
   8    0.00018411010948767
   9      0.69968586728097
  10     0.026811840262788
  11    0.00013512877385046
  12    6.9875949231778e-05
  13    -1.0296401276302e-05
  14       -0.049745400233
  15    -0.005548705339447
  16    0.0015526575500323
  17    -0.0027133908444501
  18    -0.00030304429617838
  19    -0.0048891389779048
  20    -0.0049116201316386
  21    0.00037576046354456
  22    -0.049713735012559
  23    -0.0055439703105137
  24    -0.0015517496480709
  25    -0.00094780897457622
  26    -0.002558153769357
  27    0.00028583922799056
  28      0.69911578266254
  29     0.026790047242873
  30    -0.00013505964308082
  31    6.8090187811061e-06
  32    7.0211248514802e-05
  33    0.00037553469750033
  34    0.00028554370535723
  35    -0.004885069109226
  36    -0.015667318030448
  37    -0.004684976904767
  38    0.0030138957905859
  39    -0.00019608261453766
  40    -9.2903052549202e-05
  41    -0.0049075961608595
  42    0.00013539758028894
  43    0.0001379751629857
  44    0.00018396116539141
 Sym= A
 Ene=               1
 Spin= Alpha
 Occup=    1.00000
   1     0.015766718353784
   2    0.0046957800603696
   3    0.0030214154769338
   4    0.00012795904429374
   5    0.00017276316438772
   6    -0.00013622030925308
   7    -0.00013634030040074
   8    -0.00018286715729113
   9      -0.6998181719589
  10     -0.02675264747868
  11    -8.4433480990172e-05
  12    -0.00011742936981097
  13    -3.4587408064969e-05
  14     0.038798753928542
  15    0.0058095955820489
  16    -0.0011179968786438
  17    0.0026535671194271
  18    0.00019875043150224
  19     0.004995800003223
  20    0.0049401325093675
  21    -0.00027657089771983
  22    -0.038839236343156
  23    -0.0058141114411176
  24    -0.0011192634384913
  25    -0.00083361679832181
  26    -0.0025293915139201
  27    -0.00036235518411921
  28      0.70038768841957
  29     0.026774471702233
  30    -8.4543167113947e-05
  31    6.1892292492077e-05
  32    0.00010567940189324
  33    0.0002768767065406
  34    0.00036258778462447
  35    -0.0049997791853222
  36    -0.015779487659872
  37    -0.004699597406146
  38    0.0030238706670032
  39    -0.00019868600881428
  40    -8.2594747308111e-05
  41    -0.0049441307222689
  42    0.00013633066491246
  43    0.00013645270659879
  44    0.00018301704120932
 Sym= A
 Ene=               2
 Spin= Alpha
 Occup=    1.00000
   1    -0.0056772452553265
   2    -0.00031858367583142
   3    -0.00010803651534373
   4    5.1289108273389e-05
   5    1.9706209293654e-06
   6    5.685354117132e-05
   7    7.2204080313652e-05
   8    -2.7324242453821e-05
   9       0.0393783491917
  10    -0.0026041365472097
  11    -0.001272786837286
  12    0.0027419094480334
  13    0.00026039572413727
  14      0.69997399294839
  15     0.030204912075332
  16    0.0028607768588115
  17    -0.00044344512480296
  18    -0.00011946796713884
  19    -0.00022671844348295
  20    -0.0002548069678908
  21    -0.0049394918880161
  22     -0.69996246636124
  23    -0.030204549587863
  24    0.0028608282687451
  25    0.00022288182015813
  26    0.0004015328784378
  27    -0.0049949544629414
  28    -0.039377466167195
  29    0.0026041055756134
  30    -0.0012727664415042
  31    -0.00091396148596046
  32    -0.002598133361458
  33    0.0049394111076851
  34    0.0049948748913356
  35    0.00022671203958784
  36    0.0056771070862536
  37    0.00031857345640253
  38    -0.0001080322158467
  39    -1.4281283816307e-05
  40    -4.9297952767799e-05
  41    0.00025480083806106
  42    -5.6852343180607e-05
  43    -7.2202607859276e-05
  44    2.7323858430489e-05
 Sym= A
 Ene=               3
 Spin= Alpha
 Occup=    1.00000
   1    -0.0091636069296268
   2    -0.00063119844147577
   3    -0.00024847120351241
   4    0.00011937639775519
   5    2.4507709692415e-06
   6    7.782502707985e-05
   7    9.7228643815743e-05
   8    -1.8655838305125e-05
   9     0.050230194616225
  10    -0.0019998793711855
  11    -0.0014090690758237
  12    0.0026755905978643
  13    0.00023738522273032
  14      0.69994746531213
  15     0.022080857987551
  16    -0.0031210645955656
  17    -0.0005466030857562
  18    -7.9698663113333e-05
  19    -0.00036133584617821
  20    -0.00034763765513458
  21    -0.004903889509697
  22      0.69995899632745
  23     0.022081356411487
  24    0.0031210172589756
  25    -0.00020917801044539
  26    -0.00051125691271469
  27    -0.0048906140432408
  28     0.050230830968443
  29    -0.0019999224948254
  30    0.0014090928318484
  31    0.00087566539753635
  32    0.0025394060348755
  33    -0.0049039708676685
  34    -0.0048906971863479
  35    -0.00036133949385431
  36    -0.0091637138216448
  37    -0.00063120419678374
  38    0.00024847305735923
  39    3.1168523790987e-05
  40    0.0001152622959926
  41    -0.00034764179925569
  42    7.7826057048173e-05
  43    9.7229969741621e-05
  44    -1.8656200585247e-05
 Sym= A
 Ene=               4
 Spin= Alpha
 Occup=    1.00000
   1     -0.69982467225433
   2    -0.026520903789798
   3    0.00034171921364617
   4    1.659494652909e-05
   5    1.6271701035213e-05
   6    0.0049032215190652
   7    0.0049016573436199
   8    0.0049095118441709
   9    -0.016734784870591
  10    0.0034310326524482
  11    -0.0029874221628682
  12    -0.00013944139656883
  13    -0.00017140524671756
  14    -0.0048060657404498
  15    -0.00025017597690343
  16    -0.00018374994385354
  17    4.9373464116941e-06
  18    -2.5344458741163e-05
  19    6.9773159127634e-05
  20    8.4334930016301e-05
  21    2.9746942251819e-05
  22    0.0048381567730304
  23    0.00025088084420083
  24    -0.00018388999158163
  25    2.3222572307175e-05
  26    -1.1021897422663e-05
  27    4.453589522518e-05
  28     0.016802128222879
  29    -0.0034446248252617
  30    -0.0029992327695556
  31    0.00020079682040144
  32    9.4402169692325e-05
  33    -2.9957874126354e-05
  34    -4.4867094893178e-05
  35    -7.0172907656811e-05
  36      0.70260319844656
  37     0.026626176619528
  38    0.00034309375059424
  39    -1.9864601301344e-05
  40    -1.2223866167322e-05
  41    -8.4665090148607e-05
  42    -0.0049226876956715
  43    -0.0049211155936039
  44    -0.0049290053930392
 Sym= A
 Ene=               5
 Spin= Alpha
 Occup=    1.00000
   1      0.70256894293993
   2     0.026618833039393
   3    -0.00034762645668974
   4    -1.4783484993693e-05
   5    -1.4820782460843e-05
   6    -0.0049219952262661
   7    -0.0049202631451374
   8    -0.0049291268469139
   9     0.017026004162286
  10    -0.0034367764899453
  11    0.0029864277013584
  12    0.00015107718948845
  13    0.00017588671966245
  14    0.0081046007100209
  15    0.00017827438276291
  16    3.5709422278969e-05
  17    -4.0075990520752e-05
  18    -3.7634112824565e-05
  19    -0.0001010067048217
  20    -8.3483602406619e-05
  21    -5.3263874710965e-05
  22    0.0080855060507178
  23    0.00017728224108471
  24    -3.4981215193038e-05
  25    -4.6280777821438e-05
  26    -2.9773380559448e-05
  27    -8.363257319633e-05
  28     0.016959563616109
  29    -0.0034231540307337
  30    -0.002974566138618
  31    0.00020633893885705
  32    0.00010382827280979
  33    -5.3145684743931e-05
  34    -8.3455600349657e-05
  35    -0.00010072948455898
  36      0.69979028003703
  37     0.026513531962572
  38    0.00034626932831135
  39    -1.7870098439693e-05
  40    -1.072485094685e-05
  41    -8.3148766971734e-05
  42    -0.0049025275505373
  43    -0.0049008006093324
  44    -0.0049096333531313
 Sym= A
 Ene=               6
 Spin= Alpha
 Occup=    1.00000
   1    -0.059199993904375
   2      0.15758201266325
   3     0.036845973391869
   4     -0.00289777816599
   5    0.0016204981266213
   6      0.03450392636363
   7     0.034461251072305
   8     0.031515466389628
   9     -0.10191193187853
  10      0.27219044586327
  11     0.007192713675409
  12      -0.0376422686129
  13    -0.0034530059532655
  14     -0.12275318274406
  15       0.3277921584064
  16     0.024086653524238
  17      0.02904819192706
  18    0.0045146393120941
  19     0.060608730818221
  20     0.059678336023238
  21     0.071759366012677
  22     -0.12275319665497
  23      0.32779219355598
  24    -0.024086607459166
  25     0.011386959165844
  26     0.027101996657647
  27     0.070056976216495
  28     -0.10191195742579
  29       0.2721905116616
  30    -0.0071927391986029
  31    -0.012429285512506
  32    -0.035698403903798
  33     0.071759371789992
  34     0.070057000136367
  35     0.060608738695196
  36    -0.059200019611652
  37      0.15758207955535
  38    -0.036845991333231
  39    0.00087384276519497
  40    -0.0032030346109622
  41     0.059678354779054
  42     0.034503945581472
  43     0.034461260261004
  44     0.031515477888766
 Sym= A
 Ene=               7
 Spin= Alpha
 Occup=    1.00000
   1     -0.10560877399868
   2      0.28817426956555
   3     0.046576869049008
   4    -0.0010710802247874
   5    0.0022525732122538
   6     0.068298280629424
   7     0.068376796006157
   8     0.066324336961307
   9     -0.11898400706886
  10      0.32469374159161
  11    -0.035530774232545
  12    -0.015487990516798
  13    -0.0050799001213774
  14    -0.054387809687038
  15       0.1487551363061
  16    -0.056524373801328
  17     0.041605156438688
  18    -0.0013708446523829
  19     0.074494005486492
  20     0.075786149643293
  21     0.034996610182943
  22     0.054387769348922
  23     -0.14875502493727
  24    -0.056524428151382
  25    -0.0087034907455199
  26    -0.040707646340682
  27     0.039814009996508
  28      0.11898398998629
  29     -0.32469369128116
  30    -0.035530778198101
  31    0.0086652353365852
  32     0.013805714451525
  33    -0.034996583144744
  34    -0.039813994798065
  35    -0.074493983746153
  36      0.10560877861157
  37     -0.28817427981906
  38     0.046576871157572
  39    -0.001927817542476
  40    0.0015826860249256
  41    -0.075786142073176
  42     -0.06829829237623
  43    -0.068376788423739
  44    -0.066324335488847
 Sym= A
 Ene=               8
 Spin= Alpha
 Occup=    1.00000
   1       -0.121888517571
   2      0.34474932005556
   3      0.01004100241107
   4    0.0077679159080299
   5    0.0017881713294891
   6     0.092786596616995
   7     0.092527627632938
   8     0.098686470621994
   9    -0.045073206218456
  10      0.12712640236085
  11    -0.093018856470403
  12     0.049632377973567
  13    0.0029197284668277
  14     0.098057926529143
  15     -0.27826461696208
  16    -0.068192179180442
  17     0.032649787805222
  18    0.0071184992072982
  19     0.035430976897441
  20     0.032623511858282
  21    -0.072986124990145
  22     0.098057945506115
  23     -0.27826466809849
  24     0.068192195467736
  25     0.014782491721561
  26     0.029969228098255
  27    -0.075883039837307
  28    -0.045073193903094
  29      0.12712636493608
  30     0.093018916130895
  31     0.014803326240036
  32     0.047463153163049
  33    -0.072986135363679
  34    -0.075883069942933
  35     0.035430962388102
  36     -0.12188851171458
  37       0.3447493017623
  38    -0.010040993844052
  39    0.0036087990214316
  40    0.0071073783455267
  41     0.032623500805508
  42      0.09278660557905
  43     0.092527610134835
  44     0.098686459918159
 Sym= A
 Ene=               9
 Spin= Alpha
 Occup=    1.00000
   1     -0.11063501037928
   2      0.32821739698021
   3    -0.074356719999585
   4       0.0108895676023
   5    -0.0020860025384377
   6      0.11138411284727
   7      0.11096189422835
   8       0.1235045646711
   9     0.062956766843514
  10     -0.18791555149239
  11     -0.10183195815266
  12     0.051052123915568
  13    0.0031721053498575
  14     0.090280450797218
  15     -0.26882581050076
  16     0.088620644772481
  17    -0.027565604200503
  18    0.0044596342539192
  19    -0.056929245377455
  20    -0.060654016012565
  21    -0.085340075138682
  22    -0.090280451732762
  23       0.2688258104043
  24     0.088620673872939
  25    0.0023198956307023
  26      0.02782739342308
  27    -0.092391775035218
  28    -0.062956749189633
  29      0.18791549962198
  30      -0.1018319973092
  31    -0.015390661353723
  32    -0.048780105564606
  33     0.085340071532321
  34     0.092391808193605
  35     0.056929217005493
  36      0.11063498830342
  37     -0.32821733167733
  38    -0.074356716294662
  39    -0.0006017623507582
  40    -0.011071154967925
  41     0.060654010503868
  42     -0.11138411298587
  43     -0.11096185595889
  44     -0.12350453304736
 Sym= A
 Ene=              10
 Spin= Alpha
 Occup=    1.00000
   1     0.075058224246199
   2     -0.22970625805053
   3      0.10879087776275
   4     0.022219923863893
   5     0.011298335955785
   6     -0.10252140909877
   7      -0.1059305238736
   8    -0.088151725062195
   9     -0.10445167191656
  10      0.32167442267971
  11     0.072460684640182
  12     0.071788065793056
  13     0.025709441054257
  14     0.050556843471973
  15     -0.15473069769102
  16    -0.045889425197988
  17       0.1174177263212
  18     0.042562481094294
  19      0.15242653266632
  20      0.13314861374655
  21    -0.062723826353043
  22     0.050556849584967
  23     -0.15473071337981
  24     0.045889560634399
  25     0.069623807303166
  26      0.10368705951935
  27    -0.095161093223593
  28     -0.10445170167692
  29      0.32167451501618
  30    -0.072460633108988
  31     0.042263779084441
  32     0.063468811437328
  33    -0.062723840283926
  34    -0.095161114254124
  35      0.15242655725079
  36     0.075058247166343
  37     -0.22970632934244
  38     -0.10879089078035
  39     0.016323712514143
  40     0.018839333166886
  41      0.13314867706695
  42      -0.1025214729967
  43     -0.10593053846204
  44    -0.088151742734781
 Sym= A
 Ene=              11
 Spin= Alpha
 Occup=    1.00000
   1    -0.029609518824145
   2     0.093539956108073
   3    -0.078307219509364
   4    -0.053033823901809
   5    -0.0044213594617643
   6     0.070778919028263
   7     0.063928560660036
   8     0.020822110745311
   9     0.077339719693467
  10     -0.24427305087668
  11    -0.031770301329917
  12     -0.14689550754587
  13     0.002968147695672
  14    -0.093894021782803
  15      0.29688458600697
  16     -0.10026882039635
  17     -0.11537162289851
  18     0.031130866896006
  19     -0.12233776338044
  20     -0.15052655964765
  21      0.18274630287679
  22     0.093894003384287
  23     -0.29688452325273
  24     -0.10026877907947
  25    -0.0023876431476052
  26      0.11947406200049
  27      0.13668081577734
  28    -0.077339692366465
  29       0.2442729642133
  30    -0.031770164242339
  31     0.032546320094347
  32      0.14327540627383
  33     -0.18274627157384
  34     -0.13668081790326
  35      0.12233771193207
  36     0.029609502454382
  37    -0.093539905503276
  38    -0.078307139266931
  39     0.017081094082535
  40     0.050402183959603
  41      0.15052654135082
  42    -0.070778921487872
  43    -0.063928516379279
  44    -0.020822080128462
 Sym= A
 Ene=              12
 Spin= Alpha
 Occup=    1.00000
   1    -0.0038156652920516
   2      0.01287465974207
   3    -0.032739089204741
   4    -0.028820886221814
   5     -0.16561866359305
   6     -0.07005690801691
   7      0.13788078280473
   8    -0.016803708084996
   9     0.014093942597679
  10     -0.04683359483726
  11     0.045702172576777
  12    -0.045511302042454
  13     -0.24317534157621
  14    -0.010440777949562
  15     0.035610865954072
  16    -0.015209139944398
  17     0.087742612418122
  18     -0.23989242810926
  19     -0.18515819775064
  20      0.11616413181008
  21     -0.16776151185658
  22     0.010440770419676
  23    -0.035610832014547
  24    -0.015209094421792
  25      0.21165065474153
  26     -0.14300760449676
  27      0.15270149009041
  28    -0.014093943812901
  29     0.046833603842384
  30     0.045702350900149
  31      0.24697340944383
  32    -0.014478845126565
  33       0.1677615336367
  34     -0.15270157939954
  35      0.18515817835143
  36    0.0038156653687272
  37    -0.012874664550231
  38    -0.032738939185487
  39      0.16768082586886
  40    -0.011972181272958
  41     -0.11616413861343
  42     0.070056914401577
  43     -0.13788077115757
  44     0.016803682915107
 Sym= A
 Ene=              13
 Spin= Alpha
 Occup=    1.00000
   1    -0.0052046810296703
   2     0.017043740359295
   3    -0.075907392134802
   4    -0.043959207197562
   5      0.19894021573365
   6      0.16763792548826
   7     -0.10502144181175
   8     0.012865614745977
   9     0.014614515782339
  10    -0.049004779373822
  11     0.043302652850306
  12     -0.07152926434057
  13      0.26401937825729
  14    -0.0089924107975375
  15     0.032801061126833
  16     0.036456608733763
  17     0.051506138013442
  18      0.18421770946403
  19      0.15537647030198
  20      -0.1929403617007
  21     0.090355271237383
  22    -0.008992411651043
  23     0.032801069981756
  24    -0.036456417428867
  25      0.19120190522215
  26    0.0055580432292541
  27     -0.14305573862133
  28      0.01461450454449
  29    -0.049004733919358
  30    -0.043302562412878
  31      0.23897549659135
  32     -0.13309158763297
  33     0.090355240431358
  34     -0.14305574979816
  35      0.15537643464954
  36    -0.0052046757932452
  37      0.01704371886006
  38      0.07590747915161
  39      0.18246630312045
  40    -0.090640320757817
  41     -0.19294032371035
  42      0.16763796017161
  43     -0.10502143806882
  44     0.012865534926869
 Sym= A
 Ene=              14
 Spin= Alpha
 Occup=    1.00000
   1    0.0053853223650029
   2    -0.014765265065922
   3      0.14664134395506
   4      -0.2588115817557
   5    -0.012828268486076
   6      0.06592379321538
   7     0.051398730226505
   8     -0.25543144520889
   9    -0.021056794783168
  10     0.075258788352491
  11     -0.10962160394118
  12     -0.20379153063144
  13    -0.021657319950919
  14     0.010898613588711
  15    -0.037779580913973
  16     -0.26195250464247
  17     0.053517043738478
  18     0.012094558219695
  19    -0.083660235816599
  20    -0.088602914960018
  21     0.033954202599342
  22     0.010898619623337
  23    -0.037779602058677
  24      0.26195256280258
  25     0.024643973201602
  26     0.049020388611072
  27     0.027963995845239
  28    -0.021056799477643
  29     0.075258804085447
  30      0.10962141426443
  31    -0.070166662578816
  32     -0.19255317421527
  33     0.033954121785941
  34     0.027964039687402
  35    -0.083660256599216
  36    0.0053853230423458
  37    -0.014765272498729
  38     -0.14664162118486
  39    -0.074867108863606
  40     -0.24807829369684
  41    -0.088602925438987
  42     0.065923851806719
  43     0.051398617528621
  44     -0.25543144480033
 Sym= A
 Ene=              15
 Spin= Alpha
 Occup=    1.00000
   1    -0.0039706077514356
   2     0.011922664037137
   3     -0.15547775722678
   4     -0.10809234889536
   5     -0.18395723377939
   6    -0.0085547524608015
   7      0.21743095237228
   8    -0.043001762243055
   9    0.0096695027409359
  10    -0.031881675389148
  11      0.19027909622134
  12     -0.10220352195019
  13    -0.092118514460239
  14    -0.011316457662124
  15     0.046575898491383
  16      0.13911231115106
  17      0.22790626959283
  18       0.1513128542523
  19    -0.079936779867191
  20     0.048198656900764
  21     -0.03390320347866
  22    -0.011316470862368
  23     0.046575951949118
  24     -0.13911196836794
  25      0.20181088008134
  26      0.18468706175248
  27     -0.21226736901191
  28    0.0096695099043679
  29    -0.031881697923424
  30     -0.19027932592164
  31     -0.11404782183814
  32    -0.076970358827227
  33    -0.033903211178152
  34     -0.21226732935959
  35    -0.079936836727829
  36    -0.0039706060685696
  37     0.011922664688339
  38      0.15547760687572
  39     -0.20459616174441
  40    -0.060536829962448
  41     0.048198718950881
  42    -0.0085546952089646
  43      0.21743097734553
  44    -0.043001753479418
 Sym= A
 Ene=              16
 Spin= Alpha
 Occup=    1.00000
   1    -0.0015754436507996
   2    0.0066849393879759
   3     0.013278379898958
   4     -0.29248515824078
   5      0.15647724593072
   6       0.2430106321148
   7    -0.023098290471004
   8     -0.22655853984705
   9     -0.01047112512276
  10     0.039512347015104
  11     0.010712314508773
  12     -0.15708878484157
  13     0.079013115388146
  14      0.01448384865961
  15    -0.049541508769109
  16    -0.0020203101626967
  17      0.17052608491419
  18    -0.095219562524888
  19     0.020618615797506
  20     -0.10853747721487
  21       -0.161804033875
  22    -0.014483853275734
  23     0.049541524518544
  24    -0.0020203415897056
  25     0.051283173378481
  26     -0.18845679348828
  27    -0.012046792020096
  28     0.010471131882951
  29    -0.039512372124076
  30     0.010712455804525
  31     -0.03879561201193
  32      0.17150748458126
  33      0.16180410367832
  34     0.012046753631568
  35    -0.020618567203824
  36     0.001575439628058
  37    -0.0066849159024697
  38      0.01327851560241
  39    -0.081319736945146
  40      0.32158947786457
  41      0.10853733864824
  42     -0.24301065921338
  43     0.023098377323277
  44      0.22655850789509
 Sym= A
 Ene=              17
 Spin= Alpha
 Occup=    1.00000
   1    -0.0025339539790759
   2     0.010983660449002
   3      0.13450952935174
   4     -0.19632996490224
   5     -0.25314030324878
   6     -0.10445677679869
   7       0.2375145276291
   8     -0.23148820695344
   9    -0.016921317499253
  10     0.062248736783056
  11    -0.092307856693638
  12    -0.017608035678409
  13    -0.041944502580195
  14     0.024322065907271
  15    -0.086230081097323
  16      0.01526279014339
  17    -0.026659179499891
  18      0.20744594011952
  19    -0.033008375564086
  20     0.013250781816742
  21      0.11118353868704
  22    -0.024322055374233
  23     0.086230034103939
  24      0.01526258932404
  25     -0.19489345252417
  26      0.07590205245496
  27     -0.18584538137298
  28     0.016921324219405
  29    -0.062248763020331
  30    -0.092307924195732
  31     0.044953190178658
  32    0.0069727175977869
  33     -0.11118362117345
  34      0.18584547663279
  35     0.033008558151317
  36    0.0025339591303481
  37     -0.01098368512072
  38      0.13451001378978
  39      0.29301718784814
  40      0.12948468897698
  41    -0.013250744468917
  42      0.10445684316087
  43     -0.23751447884516
  44      0.23148818152435
 Sym= A
 Ene=              18
 Spin= Alpha
 Occup=    1.00000
   1    0.0031322995276824
   2    -0.014118558356367
   3     -0.11152457172519
   4     -0.21317282740425
   5      0.19601521441672
   6      0.28813260471406
   7    -0.059744489485643
   8     -0.13775958268181
   9    -0.002068725935243
  10    0.0056644887221208
  11      0.12063704174393
  12     0.085870296337807
  13    -0.067780679667662
  14    0.0064426432068604
  15     -0.02246839279436
  16       0.1407578487868
  17     0.029838164972963
  18     -0.21504852968941
  19     0.014430885946572
  20      0.13316752608664
  21     -0.21458883682575
  22    0.0064426337740356
  23    -0.022468367520622
  24     -0.14075802012736
  25     -0.20150443588561
  26     0.080820790950479
  27      0.11209077438657
  28    -0.0020687195589146
  29    0.0056644561696009
  30     -0.12063753574178
  31    -0.045070456342514
  32     0.099682624110075
  33      -0.2145886400658
  34      0.11209058413385
  35      0.01443106543199