[Molden Format]
made by pyscf v[2.0.1]
[Atoms] (AU)
C   1   6    -7.83695275310515     0.82970636478595    -0.34118683925581
H   2   1    -9.24508330866048     2.30582076253557    -0.18705283968656
C   3   6    -5.02637801687592     0.90774090434635    -0.18604372593604
C   4   6    -3.83010163358378    -1.72178143955965    -0.41440975815784
H   5   1    -4.47216046187177     1.79236422209306     1.60309889105986
H   6   1    -4.28361360471112     2.12864344260337    -1.69176238418049
H   7   1    -4.50645351082686    -2.90968369050340     1.13876332458145
C   8   6    -0.93727467805673    -1.73157570109066    -0.45323096885262
H   9   1    -4.51783249668593    -2.60140491992599    -2.15339715408166
C   10   6     0.32945919892676    -0.87419089570343     1.99928904376032
H   11   1    -0.26853499558862    -0.55014614006878    -2.01851001509111
H   12   1    -0.30572480572006    -3.65479476456968    -0.88243595975752
H   13   1    -0.17189364568791     1.08839286370378     2.41040841079007
C   14   6     3.20407051742129    -1.10759682749945     1.91695235370473
H   15   1    -0.40503633863478    -2.00081216301672     3.57357830416073
H   16   1     4.00271280828119     0.03984600917213     0.39507124586211
H   17   1     3.78671767916124    -3.06395734083325     1.59653889579104
H   18   1     4.05632150384591    -0.48004580461498     3.68930985634441
[GTO]
1 0
 s    3 1.00
             71.616837    0.15432897000916
             13.045096    0.53532814003178
             3.5305122     0.4446345400264
 s    3 1.00
             2.9412494  -0.099967230075964
             0.6834831    0.39951283030359
             0.2222899    0.70011547053201
 p    3 1.00
             2.9412494    0.15591627210511
             0.6834831    0.60768372820466
             0.2222899    0.39195739529202

2 0
 s    3 1.00
            3.42525091    0.15432897070298
            0.62391373    0.53532814243847
             0.1688554    0.44463454202535

3 0
 s    3 1.00
             71.616837    0.15432897000916
             13.045096    0.53532814003178
             3.5305122     0.4446345400264
 s    3 1.00
             2.9412494  -0.099967230075964
             0.6834831    0.39951283030359
             0.2222899    0.70011547053201
 p    3 1.00
             2.9412494    0.15591627210511
             0.6834831    0.60768372820466
             0.2222899    0.39195739529202

4 0
 s    3 1.00
             71.616837    0.15432897000916
             13.045096    0.53532814003178
             3.5305122     0.4446345400264
 s    3 1.00
             2.9412494  -0.099967230075964
             0.6834831    0.39951283030359
             0.2222899    0.70011547053201
 p    3 1.00
             2.9412494    0.15591627210511
             0.6834831    0.60768372820466
             0.2222899    0.39195739529202

5 0
 s    3 1.00
            3.42525091    0.15432897070298
            0.62391373    0.53532814243847
             0.1688554    0.44463454202535

6 0
 s    3 1.00
            3.42525091    0.15432897070298
            0.62391373    0.53532814243847
             0.1688554    0.44463454202535

7 0
 s    3 1.00
            3.42525091    0.15432897070298
            0.62391373    0.53532814243847
             0.1688554    0.44463454202535

8 0
 s    3 1.00
             71.616837    0.15432897000916
             13.045096    0.53532814003178
             3.5305122     0.4446345400264
 s    3 1.00
             2.9412494  -0.099967230075964
             0.6834831    0.39951283030359
             0.2222899    0.70011547053201
 p    3 1.00
             2.9412494    0.15591627210511
             0.6834831    0.60768372820466
             0.2222899    0.39195739529202

9 0
 s    3 1.00
            3.42525091    0.15432897070298
            0.62391373    0.53532814243847
             0.1688554    0.44463454202535

10 0
 s    3 1.00
             71.616837    0.15432897000916
             13.045096    0.53532814003178
             3.5305122     0.4446345400264
 s    3 1.00
             2.9412494  -0.099967230075964
             0.6834831    0.39951283030359
             0.2222899    0.70011547053201
 p    3 1.00
             2.9412494    0.15591627210511
             0.6834831    0.60768372820466
             0.2222899    0.39195739529202

11 0
 s    3 1.00
            3.42525091    0.15432897070298
            0.62391373    0.53532814243847
             0.1688554    0.44463454202535

12 0
 s    3 1.00
            3.42525091    0.15432897070298
            0.62391373    0.53532814243847
             0.1688554    0.44463454202535

13 0
 s    3 1.00
            3.42525091    0.15432897070298
            0.62391373    0.53532814243847
             0.1688554    0.44463454202535

14 0
 s    3 1.00
             71.616837    0.15432897000916
             13.045096    0.53532814003178
             3.5305122     0.4446345400264
 s    3 1.00
             2.9412494  -0.099967230075964
             0.6834831    0.39951283030359
             0.2222899    0.70011547053201
 p    3 1.00
             2.9412494    0.15591627210511
             0.6834831    0.60768372820466
             0.2222899    0.39195739529202

15 0
 s    3 1.00
            3.42525091    0.15432897070298
            0.62391373    0.53532814243847
             0.1688554    0.44463454202535

16 0
 s    3 1.00
            3.42525091    0.15432897070298
            0.62391373    0.53532814243847
             0.1688554    0.44463454202535

17 0
 s    3 1.00
            3.42525091    0.15432897070298
            0.62391373    0.53532814243847
             0.1688554    0.44463454202535

18 0
 s    3 1.00
            3.42525091    0.15432897070298
            0.62391373    0.53532814243847
             0.1688554    0.44463454202535

[5d]
[7f]
[9g]

[MO]
 Sym= A
 Ene=               0
 Spin= Alpha
 Occup=    1.00000
   1    1.161389607675e-06
   2    -3.7382158253273e-05
   3    -0.0001999518446904
   4    0.0001088273581005
   5    -3.1299664659205e-06
   6    -1.1964977035836e-05
   7     0.044887579707804
   8    -0.0039602481929213
   9    -0.001824417511559
  10    0.0038642526819603
  11    0.00033146670081067
  12      0.98961382165555
  13     0.037327646778885
  14    -2.804321918718e-05
  15    -0.00058521581679633
  16    -0.00012669645713365
  17    -0.00028594895098288
  18    -0.00029641029543184
  19    -0.0069655201231372
  20    -0.049252501454098
  21    -0.007471474836712
  22    0.0042455655463064
  23    4.6630429988055e-06
  24    1.0524935189469e-05
  25    -0.0069967286788541
  26    -0.013528460922152
  27    -0.00010216166151204
  28    -5.247388644306e-06
  29    -9.2842501189138e-05
  30    -0.00022674438785897
  31    0.00037130770052697
  32    0.00041575585176113
  33    5.4399031465077e-05
  34    -0.00042820873651141
  35    -2.3642257903687e-05
  36    8.8907272551397e-06
  37    1.5090400032359e-05
  38    4.2691083634721e-05
  39    8.0221948818739e-05
  40    -1.3468426636085e-06
  41    8.3888920429259e-07
  42    -4.9054172586038e-06
 Sym= A
 Ene=               1
 Spin= Alpha
 Occup=    1.00000
   1    6.8398973675139e-05
   2    -0.00034955751095785
   3    -0.00045899064972354
   4    7.173247633873e-05
   5    -8.7803460449881e-06
   6    0.00019420937203665
   7     0.032999982641248
   8    0.00099043747290674
   9    0.00030279556173786
  10    6.1916497512067e-05
  11    -7.0869124785824e-06
  12    0.0071704187798917
  13    0.00077103848908637
  14    0.00048332253948323
  15    -0.00016581761203038
  16    -8.6406224211943e-05
  17    -0.00012029371831733
  18    -0.00017618299070222
  19    -1.9760580774611e-05
  20    -0.095328671763304
  21    -0.0093595155881924
  22    -0.0018265646760849
  23    -0.0012469903890671
  24    -0.0035619914984937
  25    -0.00014057477940865
  26      0.98645220291749
  27     0.037931578451976
  28    -0.00022280236826913
  29    2.0736644095268e-06
  30    -8.6216287479114e-07
  31    0.00069157006085285
  32    0.00069905923293615
  33    -0.0069635513645793
  34    -0.020212657212094
  35    -0.0065459296131991
  36    0.0042529391509198
  37    -0.00034633756508687
  38    -0.00013905634557894
  39    -0.0069423520437627
  40    0.0001774042293917
  41    0.00017708134970456
  42    0.00025033300330814
 Sym= A
 Ene=               2
 Spin= Alpha
 Occup=    1.00000
   1    0.0020923026587857
   2    -0.011093313272815
   3    -0.014419502391354
   4     0.002480461242088
   5    -0.00035057856485663
   6    0.0060019270978976
   7      0.99229079065878
   8     0.031058194654717
   9    0.0093008030010836
  10    0.00093108759076874
  11    0.00060784930098338
  12    -0.045221930140115
  13    -0.0065596557706186
  14    0.0012736882353156
  15    -0.0033568277163428
  16    -0.00032142408198293
  17    -0.0058626611477761
  18    -0.0058514334250249
  19    0.00084753039164325
  20    -0.013702317261613
  21    -0.0008301022016642
  22    0.00080125683710506
  23    -0.00012874964246451
  24    9.0448623139667e-05
  25    0.00097627968255051
  26    -0.034040138935748
  27    -0.0013080974578788
  28    -6.1193978487535e-06
  29    -0.00021665573817656
  30    -0.00010076099222994
  31    7.5406198023453e-05
  32    0.00035579833485973
  33    0.00035000083560745
  34    0.00080609164863316
  35    0.00018248889667562
  36    -0.00012262605415097
  37    2.6674132243658e-05
  38    -2.6655191125998e-06
  39    0.00032358877172942
  40    -1.727293133151e-06
  41    -4.9309279103433e-05
  42    4.581236441998e-05
 Sym= A
 Ene=               3
 Spin= Alpha
 Occup=    1.00000
   1    -4.3190299918479e-05
   2    0.00024789082365168
   3    0.00034475291315481
   4    -0.00011882320476937
   5    3.4409684278382e-06
   6    -0.00011697547569846
   7    -0.019469990478855
   8    -0.00046041525800432
   9    4.4531546988587e-05
  10    -0.00016397875643292
  11    -9.930194022105e-06
  12    -0.050480825409997
  13    0.0038800229162123
  14    0.0042204501501482
  15    8.2696203686223e-05
  16    -2.7854850660144e-05
  17    0.00015573512406831
  18    0.00012860960263532
  19    0.00031743639046958
  20     -0.98600652506647
  21    -0.036344945916633
  22    -0.0003289764188942
  23    0.00037286484637794
  24    0.00076596745543759
  25    0.00027209051697573
  26    -0.095066318140141
  27    0.0020375168597204
  28    -0.0019117526999054
  29    -0.0012545337963965
  30    -0.0036109787768078
  31    0.0069298167517061
  32    0.0069564402434298
  33    0.00064034793443458
  34    0.0088069602450939
  35    0.00079833141158273
  36    -0.00039482043586858
  37    -1.8928262561424e-05
  38    -0.00011400733099421
  39    0.00064833713816979
  40    -8.4176471268527e-05
  41    -0.00010845245971459
  42    4.0926297875831e-05
 Sym= A
 Ene=               4
 Spin= Alpha
 Occup=    1.00000
   1    -3.0056377465436e-08
   2    3.102685875852e-06
   3    3.1585722866867e-06
   4    -1.4102096202391e-06
   5    -1.2459797691149e-06
   6    5.0755799374516e-08
   7    -6.8407082222022e-05
   8    -8.9408776054321e-06
   9    7.2041980973322e-06
  10    -3.2555070975085e-06
  11    -2.074063145192e-06
  12    -0.001079718104096
  13    8.4549872029315e-05
  14    9.5645309791111e-05
  15    2.284237618033e-05
  16    4.3758355031817e-05
  17    2.1357299410094e-05
  18    -1.4759059194379e-06
  19    7.9174241705546e-06
  20    -0.0068652349758158
  21    -0.00023495095829976
  22    0.00015862535463287
  23    1.1151734581979e-05
  24    2.0152925168198e-05
  25    1.8812039462942e-05
  26    -0.021964323988852
  27    0.0049171522833486
  28    0.0042242968510209
  29    -0.00035220041245844
  30    -0.0001425294265514
  31    4.2498887093564e-05
  32    7.4660465704817e-05
  33    0.00010755519630902
  34     -0.99170616185491
  35    -0.037590630845182
  36    -0.00047383217495808
  37    3.3959888184553e-05
  38     1.62333828237e-05
  39    0.00010479006372686
  40     0.006947780223856
  41    0.0069457856093702
  42     0.006957589002701
 Sym= A
 Ene=               5
 Spin= Alpha
 Occup=    1.00000
   1    -0.0021209129837507
   2     0.015653070098541
   3     0.016578640138927
   4    -0.0023933082965112
   5    0.00038669003261849
   6    -0.0095520930313692
   7     0.038807531808709
   8    -0.098543108315544
   9    -0.062072551261202
  10     0.032790122664821
  11    -0.00061209047332725
  12      0.10598525933717
  13     -0.28554493392116
  14    -0.049008583288995
  15    -0.0094334336718066
  16    -0.0039864842329283
  17    -0.029614776920082
  18    -0.028460067530628
  19    -0.064147024347448
  20      0.14132060257338
  21     -0.37859069447385
  22    0.0088193755503088
  23    -0.013162300518092
  24    -0.036963017731801
  25    -0.061304474376567
  26      0.13268717283216
  27     -0.35588064918302
  28    0.0014736366222876
  29     0.016095223625286
  30     0.041519461563167
  31    -0.084490733767723
  32    -0.085068971405221
  33    -0.079781791888799
  34     0.083374605205379
  35     -0.22303205658234
  36     0.049056263306933
  37    -0.0020279740716403
  38    0.0037794674382286
  39    -0.079235659530903
  40    -0.049634934141766
  41    -0.049509635136109
  42    -0.045976535048805
 Sym= A
 Ene=               6
 Spin= Alpha
 Occup=    1.00000
   1    -0.0037493837158101
   2     0.028061931393109
   3     0.028912159324537
   4    -0.0036660828095151
   5    0.0008447705079291
   6    -0.017018432754308
   7     0.066437135828683
   8     -0.17432238417077
   9     -0.10493158966319
  10     0.050895358187358
  11    0.0021164007985949
  12      0.13924644622781
  13     -0.39028371810274
  14    -0.005545944987411
  15    -0.018436480875997
  16    0.0045944890409067
  17    -0.054039336632088
  18    -0.056518461762387
  19    -0.098854592103324
  20     0.046172372294278
  21     -0.12743071385857
  22     0.096252969786342
  23     0.011036518187807
  24     0.043746044805319
  25     -0.10437510151694
  26    -0.096650653845006
  27       0.2688234400438
  28      0.08325613561679
  29    0.0038662621002073
  30     0.024985504762019
  31    -0.032507687143011
  32    -0.030216880059887
  33     0.065323746339338
  34     -0.13757139881389
  35      0.38283868731443
  36    -0.036201247839828
  37    0.0038805746136072
  38    0.0033029375166361
  39     0.065596915806345
  40     0.096891303355657
  41     0.097041013951102
  42     0.098784865325365
 Sym= A
 Ene=               7
 Spin= Alpha
 Occup=    1.00000
   1    0.0059369883824859
   2    -0.043519816518812
   3     -0.03914354019662
   4    0.0052823370337801
   5    -0.0010524363287829
   6     0.022137831178879
   7    -0.096090069913386
   8      0.26762582214914
   9        0.145268056019
  10    -0.028949564029913
  11    0.0035307237279784
  12    -0.080478150465557
  13      0.24000623481732
  14     -0.11644929925519
  15     0.055627182510355
  16    0.00032714188036199
  17      0.10441860329554
  18      0.10580805329329
  19      0.07784446256777
  20      0.11993896033159
  21     -0.35732103603895
  22    -0.072990162244475
  23    0.0078643700899905
  24    -0.016941643855393
  25      0.08355806982248
  26     0.054687547669666
  27     -0.16251758396003
  28      0.11626308757567
  29      0.02059897636507
  30     0.064288071453704
  31     -0.10881446194477
  32     -0.11848848797593
  33    -0.042967520130763
  34       -0.125597849248
  35      0.37015054068815
  36     0.068470683738605
  37    0.0014665463568282
  38     0.013766867757289
  39    -0.049853610993237
  40       0.1208034010617
  41      0.11972072103052
  42      0.13546739207224
 Sym= A
 Ene=               8
 Spin= Alpha
 Occup=    1.00000
   1       0.0072963544926
   2    -0.047261925033154
   3    -0.029690462883856
   4    0.0097886188647246
   5    0.00094174788904283
   6     0.011536053264318
   7     -0.10208194126028
   8      0.29937844641409
   9      0.14755181227745
  10      0.07086014903517
  11     0.031810634047132
  12     0.039542715998112
  13     -0.12007428467761
  14    -0.059795649968263
  15      0.12256026357284
  16     0.047924208985148
  17      0.17050874505091
  18      0.14714482679015
  19     -0.04318259608939
  20     0.068408156210218
  21     -0.21199992040038
  22     0.040491607711097
  23     0.078433124767978
  24      0.11948935245749
  25    -0.080536832819406
  26      -0.1147568825853
  27      0.35407384284149
  28    -0.074953152969827
  29     0.051701386273595
  30     0.082263345621019
  31    -0.086648830394821
  32     -0.11999150878738
  33      0.17305840517279
  34     0.077853799161388
  35     -0.23894983148019
  36     -0.11809631132962
  37     0.021550732713431
  38     0.025086435918146
  39      0.15170172937572
  40     -0.10996247345116
  41     -0.11397942668789
  42    -0.089771778297269
 Sym= A
 Ene=               9
 Spin= Alpha
 Occup=    1.00000
   1    -0.0078409548367394
   2     0.044902211631541
   3     0.016361445009334
   4    -0.015711738954832
   5    0.00068795998087664
   6    0.00096809006628611
   7     0.094517266305941
   8     -0.28748552004985
   9     -0.13337770964645
  10     -0.16417731772573
  11    -0.0052328152072657
  12    -0.095117168722192
  13      0.30143707114286
  14    -0.094890102094049
  15     -0.15060535096987
  16     0.025597609933113
  17     -0.17285034663125
  18     -0.19838420725889
  19      0.19109088318664
  20     0.079612606074237
  21     -0.25178468923819
  22     -0.10176275637255
  23     -0.02184774528347
  24      0.10724987726488
  25      0.14785763097613
  26    -0.065868819383242
  27      0.20887541704826
  28    -0.024371971635832
  29     0.021062622836782
  30       0.1319721346692
  31     -0.17240434588311
  32      -0.1093925395789
  33     0.097330362373544
  34     0.023813085529119
  35    -0.075470755813603
  36    -0.067269201603938
  37     0.013951463838661
  38     0.047428252399114
  39      0.13688380959327
  40    -0.062631773114496
  41    -0.052534016683831
  42    -0.014809052080129
 Sym= A
 Ene=              10
 Spin= Alpha
 Occup=    1.00000
   1    0.0029389346285445
   2    -0.015473059421056
   3    -0.0027701316585347
   4    0.0062802951258781
   5     0.017623028793127
   6    -0.0042681199242716
   7    -0.020528949312676
   8     0.064792650796712
   9     0.011490440773103
  10     0.073452586290796
  11      0.16429253157007
  12     0.013813658892012
  13     -0.04734983243096
  14     0.019248890804725
  15    -0.071123273784837
  16       0.2124522623518
  17      0.16260019723814
  18      -0.0371691557712
  19      0.13947206518376
  20    -0.0080747303396094
  21      0.02736248182518
  22     0.013230136981792
  23     -0.24527685937575
  24      0.15679664741061
  25     -0.14159156292874
  26     0.011942723018882
  27    -0.039835288989016
  28    -0.051372650569162
  29     -0.30773322856914
  30     0.042357373520898
  31     -0.19412289542074
  32      0.17581960911612
  33     -0.22525141458314
  34    -0.0031305225724449
  35     0.010639684341065
  36     0.021616609674235
  37     -0.21814843014965
  38     0.031295489971202
  39      0.16213256177314
  40     -0.10717338310247
  41      0.17178547773959
  42    -0.020112237193343
 Sym= A
 Ene=              11
 Spin= Alpha
 Occup=    1.00000
   1    -0.0012459602614176
   2    0.0086528157608317
   3    0.0031865159095812
   4    -0.0075699111772431
   5     0.035306941471121
   6    -0.0019614895882557
   7      0.01120714960128
   8    -0.034370864954599
   9    -0.026641524270144
  10    -0.072175499893006
  11      0.30594740001012
  12    -0.006011879855583
  13     0.022985400366839
  14     0.024682136446403
  15    0.0075503867722325
  16      0.31179652342182
  17      0.17801236338037
  18     -0.24393075578547
  19       0.1873885033658
  20    -0.013193893149922
  21     0.048369990001637
  22    -0.012560976085964
  23      0.12505249392462
  24     0.095418783559517
  25     -0.21775160215622
  26     0.017026634144741
  27    -0.056926756774046
  28    -0.068664454942415
  29      0.16555251002093
  30     -0.17627583991837
  31     0.015173049081864
  32    -0.097869582653515
  33     0.097037493992654
  34    -0.0055198665108055
  35     0.018471517273855
  36     0.094928037973426
  37      0.14168779669379
  38      -0.1394917437389
  39     -0.18170164349812
  40      0.18587201061434
  41    -0.065692330121469
  42    -0.024300958702179
 Sym= A
 Ene=              12
 Spin= Alpha
 Occup=    1.00000
   1    -0.00063284902952333
   2    -0.0052645650413546
   3    -0.017659252700739
   4    -0.0091757180291625
   5    -0.010769838794871
   6     0.018185539271566
   7    -0.011932632659598
   8     0.035826735171123
   9     0.022779343277789
  10    -0.099058445289702
  11    -0.086090469666808
  12    -0.0070063785615243
  13     0.024005462231377
  14      -0.2481221198336
  15     0.021170324375447
  16    -0.029053848920759
  17    -0.081502642728749
  18     0.030385436797237
  19     0.047929412831686
  20     0.027724379912407
  21    -0.096726199990431
  22      0.24090338443893
  23      0.03967861623757
  24      0.10133273686106
  25     0.093954866998837
  26    -0.029434063112186
  27      0.10661827462973
  28      0.13130816165365
  29    -0.099417698417485
  30     -0.22963826737413
  31    -0.016874950494911
  32    -0.021978838629095
  33     -0.10305169138465
  34    0.0031002406733203
  35    -0.0060972692890408
  36     -0.19399557888988
  37     -0.12902993513299
  38     -0.36804094117232
  39    -0.096307573220667
  40      0.10565335327891
  41      0.10517605333802
  42     -0.37857868644716
 Sym= A
 Ene=              13
 Spin= Alpha
 Occup=    1.00000
   1    0.0048538666286588
   2    -0.026299514827679
   3    -0.0029299419496531
   4     0.014997211667288
   5     0.010949565069998
   6    -0.0084627622858295
   7    -0.013818060368025
   8     0.037246839099458
   9    -0.014721278312553
  10      0.20169536296825
  11      0.10032868797848
  12     0.016343485808292
  13    -0.066038600893466
  14     -0.12336582271275
  15     -0.25776047191563
  16    -0.045601543725293
  17      0.17455152340822
  18     0.053962626635347
  19      0.10731460942896
  20     0.014449289613666
  21    -0.058041065416016
  22      0.14011184194543
  23     -0.31825949948545
  24    -0.097056682716641
  25      0.14378036435682
  26    -0.0059067526445574
  27     0.019392369212937
  28       0.1925020390405
  29       0.0996776060229
  30     0.035671862552192
  31    -0.080484845986322
  32      0.29416246555718
  33     0.068192496734227
  34    0.0017747057790944
  35    -0.0039297953991466
  36     -0.14750623398434
  37       0.2848423446057
  38    -0.019505393780695
  39    -0.073815753707384
  40      0.10272190952805
  41     -0.27096232430289
  42    0.0091212228087145
 Sym= A
 Ene=              14
 Spin= Alpha
 Occup=    1.00000
   1    0.0014359464779713
   2    -9.4638984267935e-05
   3     0.017019120216563
   4     0.018526526603575
   5    -0.034808341615774
   6    -0.017402903109013
   7    0.0087259524401626
   8    -0.028517487462673
   9    -0.0044642324870077
  10      0.17779427734968
  11     -0.27303621272056
  12    -9.2448841215613e-05
  13    0.0020408417860504
  14      0.20076732592129
  15    -0.090651353681561
  16     0.021578816550493
  17     -0.16566637577661
  18      0.26087859572037
  19      0.00393271445446
  20    -0.006503704472964
  21     0.027308950761741
  22     -0.18897691466349
  23     -0.10712411667392
  24      0.25561291860647
  25    -0.042890326954975
  26    0.0017548033666673
  27    -0.0059220896416237
  28     -0.21532612574836
  29    0.0073932382049943
  30    -0.050625041884604
  31     -0.26335366014831
  32    0.0026657071011505
  33     0.034696274194295
  34    0.00091655604930607
  35    -0.0065304923626299
  36      0.20038639199981
  37       0.1453619470769
  38     -0.23158527956117
  39     0.026892560500117
  40       0.2947439848561
  41    -0.046802414858306
  42    -0.073406659978495
 Sym= A
 Ene=              15
 Spin= Alpha
 Occup=    1.00000
   1    0.0028881598097118
   2    -0.006018653116563
   3     0.017750112500769
   4     0.016943357689152
   5     0.029661476286772
   6    -0.024832786726581
   7     0.017852270885076
   8    -0.066447674051732
   9    -0.057507300297741
  10      0.21267118490169
  11      0.23113947903775
  12    0.0023583068446463
  13     -0.01259539216788
  14      0.12286651299708
  15      -0.1944303525335
  16      -0.2350169975296
  17      0.25602737839416
  18    -0.098612705538754
  19     -0.10951245076464
  20     0.015479209694663
  21    -0.059513589850365
  22     -0.14373457861185
  23     0.020614994135771
  24      -0.1192881933859
  25      0.23398452226883
  26    0.0001813768462841
  27    -0.0045901041290061
  28     -0.10408288383411
  29      0.15867494909344
  30      0.13087974947911
  31     0.025292783310963
  32    -0.052035044111245
  33      0.20658378729741
  34    0.0043523538467537
  35    -0.019544432787209
  36     0.088525879339699
  37     -0.25455322629983
  38      -0.2126027714934
  39      0.04292029109679
  40     0.039845042203955
  41      0.28683557701081
  42      -0.2334756726772
 Sym= A
 Ene=              16
 Spin= Alpha
 Occup=    1.00000
   1    0.0030453306434722
   2    -0.0091316386823413
   3      0.01562389769064
   4     0.023524076147941
   5    -0.023503333125513
   6    -0.020921392212839
   7     0.016114258788287
   8    -0.063551063004683
   9    -0.037998290520395
  10      0.26515632981968
  11     -0.17002204085401
  12    0.0041780237392911
  13    -0.020973140505385
  14    -0.00028255480112127
  15      -0.2842241199045
  16      0.19136871468063
  17     -0.07593286535499
  18      0.25006735522649
  19      0.29676774024595
  20    -0.0023117205020507
  21    0.0083084099463314
  22     0.036029252540131
  23      0.10061366903303
  24     0.045890613235201
  25    -0.054246904482138
  26    -0.0018204598202408
  27    0.0090182418469843
  28     0.073236663067662
  29       0.2075428372967
  30     -0.18492726005662
  31     0.039897589502907
  32    -0.082730976716058
  33       0.1471944136048
  34    -0.0038333301603568
  35     0.015900134467936
  36    -0.075576941796999
  37     -0.22194723529321
  38      0.17818323329523
  39     -0.27370820015288
  40     -0.28629547505673
  41      0.17359523865676
  42     0.064540661660348
 Sym= A
 Ene=              17
 Spin= Alpha
 Occup=    1.00000
   1    0.00042902973577885
   2    0.0094739030144536
   3     0.022304740961692
   4      0.01332419371575
   5      0.01244981243937
   6     -0.02214259830258
   7     0.014282843933126
   8    -0.044626078258189
   9    -0.019421696950961
  10     0.090787527379476
  11     0.079599963054496
  12     -0.02862038045883
  13      0.11197053927717
  14      0.38024717285019
  15     0.013928545326719
  16    -0.046554478375585
  17     0.059698106391367
  18     -0.04939684790088
  19     -0.12944326934568
  20    -0.0075005373194644
  21     0.038768777740432
  22     -0.35932388285103
  23     0.056071523271011
  24      0.07660798765941
  25    -0.046968707173958
  26    -0.011146225634932
  27     0.052360239932612
  28      0.36939152189881
  29     -0.09519623648107
  30    -0.077956755092287
  31     -0.13869608712523
  32     -0.17841107670188
  33     -0.18581761872882
  34     -0.02906481532508
  35      0.11610194418123
  36        -0.39449916171
  37     0.050558620813679
  38    -0.0049886595299945
  39     -0.12723145112908
  40    -0.074061100531012
  41     -0.11639254219108
  42     -0.10370526504883
 Sym= A
 Ene=              18
 Spin= Alpha
 Occup=    1.00000
   1     0.002535862244888
   2    -0.0070683954975848
   3     0.013461905968229
   4     0.018605933796282
   5    -0.0036148872825375
   6    -0.018599940700924
   7     0.015426056719622
   8    -0.062063790371821
   9    -0.042315513923539
  10      0.20732500506851
  11    -0.031354798486726
  12    0.0053769566678427
  13    -0.026497680261324
  14    -0.0036670546283101
  15     -0.21280428332611
  16      0.14875084626751
  17    0.0067964863679587
  18       0.1261316561873
  19      0.25918519313724
  20    0.0096740422304753
  21    -0.040870944848033
  22     0.005042539627959
  23        0.265748684302
  24     -0.23457129886217
  25    -0.051230082842834
  26    0.0060944918536098
  27    -0.025331029871784
  28     0.025104039303706
  29     -0.23850938760545
  30      0.21452704609812
  31      0.35676798472702
  32     -0.24238794441387
  33     -0.22703984176059
  34    -0.001024559842579
  35    0.0034479994284122
  36    -0.019894643232114
  37      0.11179385582288
  38     -0.10917568850469
  39       0.3122670368693
  40      0.16625029907388
  41     -0.11309937707438
  42    -0.072590823761914
 Sym= A
 Ene=              19
 Spin= Alpha
 Occup=    1.00000
   1    -0.0026587112763321
   2     0.011672759099795
   3    -0.0042874323822538
   4    -0.011137243175976
   5    -0.017351398842324
   6      0.01102934778147
   7    -0.0086486125245466
   8     0.039411192504975
   9     0.041676378775525
  10      -0.1556937682667
  11     -0.13454138258791
  12    -0.0098097356199399
  13     0.039589297644693
  14     0.095124467839583
  15      0.16695565113917
  16      0.25015506418208
  17     -0.17260783615897
  18     0.047629773104128
  19     0.092430171982675
  20     0.015277013502036
  21    -0.061857154473789
  22     -0.14937400829278
  23     -0.21146769546587
  24     -0.30861313967503
  25     -0.32723645464863
  26     0.018496834162331
  27    -0.076391954955317
  28      0.16529053929027
  29      0.21405558896996
  30      0.31231073792914
  31     0.042129248155256
  32      0.21171282454603
  33      0.20393976237765
  34    -0.0052349399109647
  35     0.018905277302499
  36       -0.116290795018
  37    -0.097032943112303
  38     -0.15444898172492
  39     0.032486146828353
  40     0.030877309512618
  41       0.1162761395688
  42     -0.22432327864018
