[Molden Format]
made by pyscf v[2.0.1]
[Atoms] (AU)
C   1   6    -7.83695275310515     0.82970636478595    -0.34118683925581
H   2   1    -9.24508330866048     2.30582076253557    -0.18705283968656
C   3   6    -5.02637801687592     0.90774090434635    -0.18604372593604
C   4   6    -3.83010163358378    -1.72178143955965    -0.41440975815784
H   5   1    -4.47216046187177     1.79236422209306     1.60309889105986
H   6   1    -4.28361360471112     2.12864344260337    -1.69176238418049
H   7   1    -4.50645351082686    -2.90968369050340     1.13876332458145
C   8   6    -0.93727467805673    -1.73157570109066    -0.45323096885262
H   9   1    -4.51783249668593    -2.60140491992599    -2.15339715408166
C   10   6     0.32945919892676    -0.87419089570343     1.99928904376032
H   11   1    -0.26853499558862    -0.55014614006878    -2.01851001509111
H   12   1    -0.30572480572006    -3.65479476456968    -0.88243595975752
H   13   1    -0.17189364568791     1.08839286370378     2.41040841079007
C   14   6     3.20407051742129    -1.10759682749945     1.91695235370473
H   15   1    -0.40503633863478    -2.00081216301672     3.57357830416073
H   16   1     4.00271280828119     0.03984600917213     0.39507124586211
H   17   1     3.78671767916124    -3.06395734083325     1.59653889579104
H   18   1     4.05632150384591    -0.48004580461498     3.68930985634441
[GTO]
1 0
 s    3 1.00
             71.616837    0.15432897000916
             13.045096    0.53532814003178
             3.5305122     0.4446345400264
 s    3 1.00
             2.9412494  -0.099967230075964
             0.6834831    0.39951283030359
             0.2222899    0.70011547053201
 p    3 1.00
             2.9412494    0.15591627210511
             0.6834831    0.60768372820466
             0.2222899    0.39195739529202

2 0
 s    3 1.00
            3.42525091    0.15432897070298
            0.62391373    0.53532814243847
             0.1688554    0.44463454202535

3 0
 s    3 1.00
             71.616837    0.15432897000916
             13.045096    0.53532814003178
             3.5305122     0.4446345400264
 s    3 1.00
             2.9412494  -0.099967230075964
             0.6834831    0.39951283030359
             0.2222899    0.70011547053201
 p    3 1.00
             2.9412494    0.15591627210511
             0.6834831    0.60768372820466
             0.2222899    0.39195739529202

4 0
 s    3 1.00
             71.616837    0.15432897000916
             13.045096    0.53532814003178
             3.5305122     0.4446345400264
 s    3 1.00
             2.9412494  -0.099967230075964
             0.6834831    0.39951283030359
             0.2222899    0.70011547053201
 p    3 1.00
             2.9412494    0.15591627210511
             0.6834831    0.60768372820466
             0.2222899    0.39195739529202

5 0
 s    3 1.00
            3.42525091    0.15432897070298
            0.62391373    0.53532814243847
             0.1688554    0.44463454202535

6 0
 s    3 1.00
            3.42525091    0.15432897070298
            0.62391373    0.53532814243847
             0.1688554    0.44463454202535

7 0
 s    3 1.00
            3.42525091    0.15432897070298
            0.62391373    0.53532814243847
             0.1688554    0.44463454202535

8 0
 s    3 1.00
             71.616837    0.15432897000916
             13.045096    0.53532814003178
             3.5305122     0.4446345400264
 s    3 1.00
             2.9412494  -0.099967230075964
             0.6834831    0.39951283030359
             0.2222899    0.70011547053201
 p    3 1.00
             2.9412494    0.15591627210511
             0.6834831    0.60768372820466
             0.2222899    0.39195739529202

9 0
 s    3 1.00
            3.42525091    0.15432897070298
            0.62391373    0.53532814243847
             0.1688554    0.44463454202535

10 0
 s    3 1.00
             71.616837    0.15432897000916
             13.045096    0.53532814003178
             3.5305122     0.4446345400264
 s    3 1.00
             2.9412494  -0.099967230075964
             0.6834831    0.39951283030359
             0.2222899    0.70011547053201
 p    3 1.00
             2.9412494    0.15591627210511
             0.6834831    0.60768372820466
             0.2222899    0.39195739529202

11 0
 s    3 1.00
            3.42525091    0.15432897070298
            0.62391373    0.53532814243847
             0.1688554    0.44463454202535

12 0
 s    3 1.00
            3.42525091    0.15432897070298
            0.62391373    0.53532814243847
             0.1688554    0.44463454202535

13 0
 s    3 1.00
            3.42525091    0.15432897070298
            0.62391373    0.53532814243847
             0.1688554    0.44463454202535

14 0
 s    3 1.00
             71.616837    0.15432897000916
             13.045096    0.53532814003178
             3.5305122     0.4446345400264
 s    3 1.00
             2.9412494  -0.099967230075964
             0.6834831    0.39951283030359
             0.2222899    0.70011547053201
 p    3 1.00
             2.9412494    0.15591627210511
             0.6834831    0.60768372820466
             0.2222899    0.39195739529202

15 0
 s    3 1.00
            3.42525091    0.15432897070298
            0.62391373    0.53532814243847
             0.1688554    0.44463454202535

16 0
 s    3 1.00
            3.42525091    0.15432897070298
            0.62391373    0.53532814243847
             0.1688554    0.44463454202535

17 0
 s    3 1.00
            3.42525091    0.15432897070298
            0.62391373    0.53532814243847
             0.1688554    0.44463454202535

18 0
 s    3 1.00
            3.42525091    0.15432897070298
            0.62391373    0.53532814243847
             0.1688554    0.44463454202535

[5d]
[7f]
[9g]

[MO]
 Sym= A
 Ene=               0
 Spin= Alpha
 Occup=    1.00000
   1     -0.99977029335858
   2    -0.0084218097723457
   3    -0.0002009398770981
   4    0.0019080866063464
   5    0.00027820228598379
   6     0.017928265758097
   7    -0.0019154616954782
   8    0.0098448347606254
   9    -0.013755700500751
  10    -0.00017094941136377
  11    -0.00074127258534983
  12    0.00031107677463606
  13    -0.0013116793048243
  14    0.00058582376522385
  15    -0.00074315562078099
  16    -1.9583066573964e-05
  17    -0.0017772896791337
  18    -0.0017256358373202
  19    -0.00024381256223657
  20    -0.00017994995995562
  21    0.00089057519589001
  22    -0.00087457831043826
  23    0.00015015986988037
  24    3.3636837910335e-06
  25    -0.00030308673921982
  26    -3.0710656352129e-05
  27    0.00011676493951264
  28    -5.697896785134e-05
  29    0.0001590425169053
  30    4.736992657456e-05
  31    6.2332627704021e-05
  32    -0.0003084407815748
  33    -4.2342575169447e-06
  34    -4.0806507121901e-06
  35    2.2299877840428e-05
  36    -5.7359419628944e-06
  37    -9.2688545026305e-06
  38    -1.2733564978606e-06
  39    -3.5994464736918e-05
  40    -1.8057155897069e-06
  41    3.654010496554e-05
  42    -4.140885881653e-05
 Sym= A
 Ene=               1
 Spin= Alpha
 Occup=    1.00000
   1      0.17634180502299
   2      -0.6228192129736
   3    -0.032956000182098
   4     -0.17601656098241
   5    -0.028559823818827
   6     -0.33312397611009
   7     0.048588668394552
   8     -0.14198626511629
   9      0.25727094934925
  10    0.0083541380885544
  11     0.014774782157989
  12    -0.0039810073280838
  13     0.015203581620446
  14    -0.029531012482653
  15    0.0099422875121354
  16    -0.00080687147036179
  17      0.04651473509644
  18      0.04496486016164
  19     0.014149567923193
  20    0.0063373161091279
  21    -0.025289509799404
  22     0.032336486431738
  23    -0.0063247543839172
  24    -0.00063045605852536
  25     0.018589640620334
  26    0.00062468429815591
  27    -0.0021980130345431
  28    0.00043094119773974
  29    -0.0052988854490343
  30    -0.0018074946446273
  31    -0.00051847156164234
  32     0.012102161739057
  33    0.0003960275596812
  34    0.00039679460397931
  35    -0.0018322977142423
  36    0.0013990834849026
  37    0.00062689743395354
  38    0.00024613920078521
  39    0.0020267271078091
  40    0.00018491285654178
  41    -0.0015318985689914
  42    0.0019070141388408
 Sym= A
 Ene=               2
 Spin= Alpha
 Occup=    1.00000
   1    -0.013804010816059
   2     0.046975591046327
   3      0.48290612942493
   4     -0.19015656577587
   5    -0.0045181243807337
   6     -0.41045998176849
   7    -0.075714263515661
   8      0.28662312511272
   9     -0.38898593330047
  10    -0.033995145702444
  11    -0.025057319910823
  12    0.0052665860394152
  13    -0.035468963202082
  14     0.022631553288201
  15    -0.022967934296794
  16    -0.00087375666655561
  17    -0.043704104856804
  18    -0.043424108189279
  19     -0.02118932758374
  20    -0.0081545434675107
  21     0.036866303303382
  22    -0.040303578959273
  23    0.0030370552239738
  24    0.0005143253146377
  25    -0.026394257225385
  26    -0.0010856161183761
  27    0.0042402784176275
  28    -0.0017763139734492
  29    0.0067728409190746
  30     0.001554304802296
  31    0.0018969647862602
  32    -0.015425182400144
  33    -0.0013990511774613
  34    -0.00038510205082143
  35    0.0019231733471708
  36    -0.00099769637392783
  37    -0.00053056733589418
  38    3.4235556166024e-05
  39    -0.0026913395634657
  40    -0.00022051368714549
  41    0.0017879071595899
  42    -0.0021741707509684
 Sym= A
 Ene=               3
 Spin= Alpha
 Occup=    1.00000
   1      0.12750256853228
   2     -0.57750953814752
   3       0.3179390361166
   4       0.7555138852422
   5      0.12810571912945
   6      0.20544923716956
   7     -0.02626005532824
   8      0.11529939611807
   9     -0.16306582772684
  10    -0.053111402499065
  11    -0.017384191344768
  12    -0.017936192666439
  13      0.07479179036129
  14    -0.045168531405986
  15     0.070020132404378
  16    0.0034568992570223
  17    -0.089791605132183
  18    -0.081045840994736
  19     -0.01051686547867
  20    0.0014579745317942
  21    -0.0057095987177095
  22     0.017069176168515
  23    -0.0022039455437919
  24    -0.0028488933449932
  25     -0.01113954911476
  26    -0.0011782413622371
  27    0.0049243938408735
  28    -0.0031850783516162
  29    0.0062586439764602
  30    0.0016250035555919
  31    -0.0018251391562778
  32    0.0093691230410884
  33    0.0023637608730967
  34    0.00086998716345507
  35    -0.0038527361464735
  36    0.0046680952167088
  37    -0.00022265011569745
  38    5.0509146582873e-05
  39    0.00023977777813569
  40    -0.00018793393359082
  41    0.0015235776407153
  42    0.00085344762221009
 Sym= A
 Ene=               4
 Spin= Alpha
 Occup=    1.00000
   1    0.00046442354412248
   2    -0.0021628264233233
   3    -0.048982693493786
   4     -0.14784991950699
   5      0.98735329154663
   6    0.00093248587312747
   7    -5.5481405628845e-05
   8    1.2503151107902e-05
   9    0.0020390690088674
  10    0.0063917873888592
  11    -0.050466095900514
  12    0.0011748582834316
  13    -0.0051008704600503
  14    0.0020599755039307
  15    -0.0045266003579428
  16    -0.020424906846312
  17      -0.1467180884922
  18      0.15533995927797
  19    0.0074164758994065
  20    0.00031487264320352
  21    -0.0013776140678087
  22    -0.0029361157633097
  23    -0.0028114699385373
  24    0.0059279698890318
  25    -0.0075348293317384
  26    -0.0018236985020463
  27    0.0077274997308092
  28    -0.0035438882188244
  29    0.0049409060636132
  30    -0.0016905799332379
  31    -0.0045004087831647
  32    0.00078311411329197
  33    0.0016911018496367
  34    0.00056156240388112
  35    -0.0026145794296305
  36    0.0037899157743213
  37    -0.00030304412225305
  38    -0.00020872233497683
  39    -0.0011580114720603
  40    -0.00024738066724477
  41    0.0015629925398916
  42    0.00024774142481227
